[1666301019.786432] [rustyamd2:2125991:0]       rdmacm_cm.c:917  UCX  ERROR rdma_create_event_channel failed: Operation not permitted

     Program PWSCF v.7.1 starts on 20Oct2022 at 17:23:39 
        Git branch: HEAD
        Last git commit: 564a7b486665e8dd0223d6e514b84195d1a96c10
        Last git commit date: Tue Jun 14 16:16:48 2022 +0000
        Last git commit subject: Merge branch 'update_version_number' into 'develop

     This program is part of the open-source Quantum ESPRESSO suite
     for quantum simulation of materials; please cite
         "P. Giannozzi et al., J. Phys.:Condens. Matter 21 395502 (2009);
         "P. Giannozzi et al., J. Phys.:Condens. Matter 29 465901 (2017);
         "P. Giannozzi et al., J. Chem. Phys. 152 154105 (2020);
          URL http://www.quantum-espresso.org", 
     in publications or presentations arising from this work. More details at
     http://www.quantum-espresso.org/quote

     Parallel version (MPI & OpenMP), running on       1 processor cores
     Number of MPI processes:                 1
     Threads/MPI process:                     1

     MPI processes distributed on     1 nodes
     449809 MiB available memory on the printing compute node when the environment starts

     Waiting for input...
     Reading input from standard input

     Current dimensions of program PWSCF are:
     Max number of different atomic species (ntypx) = 10
     Max number of k-points (npk) =  40000
     Max angular momentum in pseudopotentials (lmaxx) =  4
     file N.pbe-n-kjpaw_psl.1.0.0.UPF: wavefunction(s)  2S renormalized
     file O.pbe-n-kjpaw_psl.1.0.0.UPF: wavefunction(s)  2S 2P renormalized
     file H.pbe-kjpaw_psl.1.0.0.UPF: wavefunction(s)  1S renormalized
     Message from routine setup:
     using ibrav=0 with symmetry is DISCOURAGED, use correct ibrav instead

     Subspace diagonalization in iterative solution of the eigenvalue problem:
     a serial algorithm will be used


     G-vector sticks info
     --------------------
     sticks:   dense  smooth     PW     G-vecs:    dense   smooth      PW
     Sum        1091    1091    269               174029   174029   21711

     Using Slab Decomposition



     bravais-lattice index     =            0
     lattice parameter (alat)  =       9.4658  a.u.
     unit-cell volume          =    4399.1244 (a.u.)^3
     number of atoms/cell      =           11
     number of atomic types    =            4
     number of electrons       =        40.00
     number of Kohn-Sham states=           33
     kinetic-energy cutoff     =      44.0992  Ry
     charge density cutoff     =     176.3967  Ry
     scf convergence threshold =      1.0E-06
     mixing beta               =       0.7000
     number of iterations used =            8  plain     mixing
     Exchange-correlation= SLA  PW   PBX  PBC
                           (   1   4   3   4   0   0   0)

     celldm(1)=   9.465808  celldm(2)=   0.000000  celldm(3)=   0.000000
     celldm(4)=   0.000000  celldm(5)=   0.000000  celldm(6)=   0.000000

     crystal axes: (cart. coord. in units of alat)
               a(1) = (   1.000000   0.000000   0.000000 )  
               a(2) = (   0.000000   0.866026   0.000000 )  
               a(3) = (   0.000000   0.000000   5.989112 )  

     reciprocal axes: (cart. coord. in units 2 pi/alat)
               b(1) = (  1.000000  0.000000  0.000000 )  
               b(2) = (  0.000000  1.154700  0.000000 )  
               b(3) = (  0.000000  0.000000  0.166970 )  


     PseudoPot. # 1 for B  read from file:
     ./B.pbe-n-kjpaw_psl.1.0.0.UPF
     MD5 check sum: 8c825a5969375aca5c2c6ad5945b3059
     Pseudo is Projector augmented-wave + core cor, Zval =  3.0
     Generated using &quot;atomic&quot; code by A. Dal Corso  v.6.3
     Shape of augmentation charge: PSQ
     Using radial grid of 1059 points,  4 beta functions with: 
                l(1) =   0
                l(2) =   0
                l(3) =   1
                l(4) =   1
     Q(r) pseudized with 0 coefficients 


     PseudoPot. # 2 for N  read from file:
     ./N.pbe-n-kjpaw_psl.1.0.0.UPF
     MD5 check sum: 14c48229446f9f2d411169a3abcbc3fa
     Pseudo is Projector augmented-wave + core cor, Zval =  5.0
     Generated using &quot;atomic&quot; code by A. Dal Corso  v.6.3
     Shape of augmentation charge: PSQ
     Using radial grid of 1085 points,  4 beta functions with: 
                l(1) =   0
                l(2) =   0
                l(3) =   1
                l(4) =   1
     Q(r) pseudized with 0 coefficients 


     PseudoPot. # 3 for O  read from file:
     ./O.pbe-n-kjpaw_psl.1.0.0.UPF
     MD5 check sum: e99d9cef9b487d1ca56f5b95ecd0fd7a
     Pseudo is Projector augmented-wave + core cor, Zval =  6.0
     Generated using &quot;atomic&quot; code by A. Dal Corso  v.6.3
     Shape of augmentation charge: PSQ
     Using radial grid of 1095 points,  4 beta functions with: 
                l(1) =   0
                l(2) =   0
                l(3) =   1
                l(4) =   1
     Q(r) pseudized with 0 coefficients 


     PseudoPot. # 4 for H  read from file:
     ./H.pbe-kjpaw_psl.1.0.0.UPF
     MD5 check sum: d81a744832360e4a8af0b0b5b123bc2a
     Pseudo is Projector augmented-wave, Zval =  1.0
     Generated using &quot;atomic&quot; code by A. Dal Corso  v.6.3MaX
     Shape of augmentation charge: PSQ
     Using radial grid of  929 points,  2 beta functions with: 
                l(1) =   0
                l(2) =   0
     Q(r) pseudized with 0 coefficients 


     atomic species   valence    mass     pseudopotential
        B              3.00    10.81100     B ( 1.00)
        N              5.00    14.00670     N ( 1.00)
        O              6.00    15.99900     O ( 1.00)
        H              1.00     1.00784     H ( 1.00)

      2 Sym. Ops. (no inversion) found



   Cartesian axes

     site n.     atom                  positions (alat units)
         1           B   tau(   1) = (   0.7500000   0.1443379   1.1978224  )
         2           B   tau(   2) = (   0.2500000   0.1443379   1.1978224  )
         3           B   tau(   3) = (   0.0000000   0.5773507   1.1978224  )
         4           B   tau(   4) = (   0.5000000   0.5773507   1.1978224  )
         5           N   tau(   5) = (   0.7500000   0.7216877   1.1978224  )
         6           N   tau(   6) = (   0.2500000   0.7216877   1.1978224  )
         7           N   tau(   7) = (   0.0000000   0.2886749   1.1978224  )
         8           N   tau(   8) = (   0.5000000   0.2886749   1.1978224  )
         9           O   tau(   9) = (   0.0000000   0.0000000   1.8765864  )
        10           H   tau(  10) = (   0.0000000   0.1511154   1.7596250  )
        11           H   tau(  11) = (   0.0000000   0.7149102   1.7596250  )

     number of k points=     1
                       cart. coord. in units 2pi/alat
        k(    1) = (   0.0000000   0.0000000   0.0000000), wk =   2.0000000

     Dense  grid:   174029 G-vectors     FFT dimensions: (  45,  36, 240)

     Estimated max dynamical RAM per process >     277.20 MB

     Check: negative core charge=   -0.000006

     Initial potential from superposition of free atoms

     starting charge      39.9988, renormalised to      40.0000

     negative rho (up, down):  2.951E-03 0.000E+00
     Starting wfcs are   38 randomized atomic wfcs
     Checking if some PAW data can be deallocated... 

     total cpu time spent up to now is        4.8 secs

     per-process dynamical memory:   137.9 Mb

     Self-consistent Calculation

     iteration #  1     ecut=    44.10 Ry     beta= 0.70
     Davidson diagonalization with overlap
     ethr =  1.00E-02,  avg # of iterations =  9.0

     negative rho (up, down):  1.789E-02 0.000E+00

     total cpu time spent up to now is        7.6 secs

     total energy              =    -202.44398354 Ry
     estimated scf accuracy    <       2.28190869 Ry

     iteration #  2     ecut=    44.10 Ry     beta= 0.70
     Davidson diagonalization with overlap
     ethr =  5.70E-03,  avg # of iterations =  4.0

     negative rho (up, down):  1.885E-02 0.000E+00

     total cpu time spent up to now is        9.7 secs

     total energy              =    -202.96283078 Ry
     estimated scf accuracy    <       1.45210514 Ry

     iteration #  3     ecut=    44.10 Ry     beta= 0.70
     Davidson diagonalization with overlap
     ethr =  3.63E-03,  avg # of iterations =  2.0

     negative rho (up, down):  2.374E-02 0.000E+00

     total cpu time spent up to now is       11.6 secs

     total energy              =    -203.21138269 Ry
     estimated scf accuracy    <       0.03110939 Ry

     iteration #  4     ecut=    44.10 Ry     beta= 0.70
     Davidson diagonalization with overlap
     ethr =  7.78E-05,  avg # of iterations =  9.0

     negative rho (up, down):  2.450E-02 0.000E+00

     total cpu time spent up to now is       14.3 secs

     total energy              =    -203.26384051 Ry
     estimated scf accuracy    <       0.14973965 Ry

     iteration #  5     ecut=    44.10 Ry     beta= 0.70
     Davidson diagonalization with overlap
     ethr =  7.78E-05,  avg # of iterations =  5.0

     negative rho (up, down):  2.567E-02 0.000E+00

     total cpu time spent up to now is       16.3 secs

     total energy              =    -203.25775291 Ry
     estimated scf accuracy    <       0.03213232 Ry

     iteration #  6     ecut=    44.10 Ry     beta= 0.70
     Davidson diagonalization with overlap
     ethr =  7.78E-05,  avg # of iterations =  4.0

     negative rho (up, down):  2.616E-02 0.000E+00

     total cpu time spent up to now is       18.2 secs

     total energy              =    -203.26359175 Ry
     estimated scf accuracy    <       0.00011420 Ry

     iteration #  7     ecut=    44.10 Ry     beta= 0.70
     Davidson diagonalization with overlap
     ethr =  2.86E-07,  avg # of iterations =  6.0

     negative rho (up, down):  2.627E-02 0.000E+00

     total cpu time spent up to now is       20.6 secs

     total energy              =    -203.26361240 Ry
     estimated scf accuracy    <       0.00019889 Ry

     iteration #  8     ecut=    44.10 Ry     beta= 0.70
     Davidson diagonalization with overlap
     ethr =  2.86E-07,  avg # of iterations =  4.0

     negative rho (up, down):  2.629E-02 0.000E+00

     total cpu time spent up to now is       22.5 secs

     total energy              =    -203.26361824 Ry
     estimated scf accuracy    <       0.00003277 Ry

     iteration #  9     ecut=    44.10 Ry     beta= 0.70
     Davidson diagonalization with overlap
     ethr =  8.19E-08,  avg # of iterations =  4.0

     negative rho (up, down):  2.628E-02 0.000E+00

     total cpu time spent up to now is       24.4 secs

     End of self-consistent calculation

          k = 0.0000 0.0000 0.0000 ( 21711 PWs)   bands (ev):

   -24.0556 -23.0551 -20.0776 -20.0615 -19.9440 -14.3033 -13.0135 -13.0051
   -11.7543 -11.2796 -11.2705 -10.6918  -9.5164  -7.9083  -6.6852  -6.6796
    -6.5056  -6.4903  -6.2655  -5.7771  -1.1135  -0.6736  -0.3348   0.2572
     0.2907   0.3116   0.8416   1.2283   1.7584   2.0511   2.9551   3.2404
     3.9780

     highest occupied, lowest unoccupied level (ev):    -5.7771   -1.1135

!    total energy              =    -203.26362394 Ry
     total all-electron energy =      -790.263087 Ry
     estimated scf accuracy    <       0.00000060 Ry

     The total energy is the sum of the following terms:
     one-electron contribution =   -1854.36234504 Ry
     hartree contribution      =     934.95665172 Ry
     xc contribution           =     -44.27101685 Ry
     ewald contribution        =     822.71451895 Ry
     one-center paw contrib.   =     -62.30143273 Ry

     convergence has been achieved in   9 iterations

     Writing all to output data dir ./hBN_water_Oup_Hdown.save/

     init_run     :      4.41s CPU      4.55s WALL (       1 calls)
     electrons    :     19.10s CPU     19.69s WALL (       1 calls)

     Called by init_run:
     wfcinit      :      0.48s CPU      0.50s WALL (       1 calls)
     potinit      :      1.51s CPU      1.54s WALL (       1 calls)
     hinit0       :      2.26s CPU      2.29s WALL (       1 calls)

     Called by electrons:
     c_bands      :     11.12s CPU     11.19s WALL (       9 calls)
     sum_band     :      2.83s CPU      3.09s WALL (       9 calls)
     v_of_rho     :      1.79s CPU      1.82s WALL (      10 calls)
     newd         :      1.12s CPU      1.42s WALL (      10 calls)
     PAW_pot      :      2.55s CPU      2.55s WALL (      10 calls)
     mix_rho      :      0.18s CPU      0.19s WALL (       9 calls)

     Called by c_bands:
     init_us_2    :      0.10s CPU      0.11s WALL (      19 calls)
     init_us_2:cp :      0.10s CPU      0.11s WALL (      19 calls)
     cegterg      :     10.95s CPU     11.01s WALL (       9 calls)

     Called by *egterg:
     cdiaghg      :      0.06s CPU      0.06s WALL (      56 calls)
     h_psi        :      8.83s CPU      8.87s WALL (      57 calls)
     s_psi        :      0.49s CPU      0.50s WALL (      57 calls)
     g_psi        :      0.04s CPU      0.04s WALL (      47 calls)

     Called by h_psi:
     h_psi:calbec :      0.44s CPU      0.44s WALL (      57 calls)
     vloc_psi     :      7.85s CPU      7.88s WALL (      57 calls)
     add_vuspsi   :      0.51s CPU      0.51s WALL (      57 calls)

     General routines
     calbec       :      0.56s CPU      0.57s WALL (      66 calls)
     fft          :      0.46s CPU      0.48s WALL (     110 calls)
     ffts         :      0.04s CPU      0.04s WALL (       9 calls)
     fftw         :      8.48s CPU      8.50s WALL (    2073 calls)

     Parallel routines

     PWSCF        :     23.70s CPU     24.54s WALL


   This run was terminated on:  17:24: 4  20Oct2022            

=------------------------------------------------------------------------------=
   JOB DONE.
=------------------------------------------------------------------------------=
