
     Program PWSCF v.7.1 starts on 25Oct2022 at 21: 1: 6 
        Git branch: HEAD
        Last git commit: 564a7b486665e8dd0223d6e514b84195d1a96c10
        Last git commit date: Tue Jun 14 16:16:48 2022 +0000
        Last git commit subject: Merge branch 'update_version_number' into 'develop

     This program is part of the open-source Quantum ESPRESSO suite
     for quantum simulation of materials; please cite
         "P. Giannozzi et al., J. Phys.:Condens. Matter 21 395502 (2009);
         "P. Giannozzi et al., J. Phys.:Condens. Matter 29 465901 (2017);
         "P. Giannozzi et al., J. Chem. Phys. 152 154105 (2020);
          URL http://www.quantum-espresso.org", 
     in publications or presentations arising from this work. More details at
     http://www.quantum-espresso.org/quote

     Parallel version (MPI & OpenMP), running on     128 processor cores
     Number of MPI processes:               128
     Threads/MPI process:                     1

     MPI processes distributed on     1 nodes
     947113 MiB available memory on the printing compute node when the environment starts

     Reading input from scf.in

     Current dimensions of program PWSCF are:
     Max number of different atomic species (ntypx) = 10
     Max number of k-points (npk) =  40000
     Max angular momentum in pseudopotentials (lmaxx) =  4
     file N.pbe-n-kjpaw_psl.1.0.0.UPF: wavefunction(s)  2S renormalized
     Found identity + (  0.0000  0.1250  0.0000) symmetry
     This is a supercell, fractional translations are disabled
     Message from routine setup:
     using ibrav=0 with symmetry is DISCOURAGED, use correct ibrav instead

     R & G space division:  proc/nbgrp/npool/nimage =     128
     Subspace diagonalization in iterative solution of the eigenvalue problem:
     one sub-group per band group will be used
     scalapack distributed-memory algorithm (size of sub-group: 10* 10 procs)


     Parallelization info
     --------------------
     sticks:   dense  smooth     PW     G-vecs:    dense   smooth      PW
     Min         635     635    160               109655   109655   13948
     Max         636     636    161               109660   109660   13955
     Sum       81311   81311  20563             14036177 14036177 1785661

     Using Slab Decomposition



     bravais-lattice index     =            0
     lattice parameter (alat)  =      75.7265  a.u.
     unit-cell volume          =  281543.9584 (a.u.)^3
     number of atoms/cell      =          512
     number of atomic types    =            2
     number of electrons       =      2048.00
     number of Kohn-Sham states=         1045
     kinetic-energy cutoff     =      51.4490  Ry
     charge density cutoff     =     205.7961  Ry
     scf convergence threshold =      1.0E-06
     mixing beta               =       0.7000
     number of iterations used =            8  plain     mixing
     Exchange-correlation= SLA  PW   PBX  PBC
                           (   1   4   3   4   0   0   0)

     celldm(1)=  75.726466  celldm(2)=   0.000000  celldm(3)=   0.000000
     celldm(4)=   0.000000  celldm(5)=   0.000000  celldm(6)=   0.000000

     crystal axes: (cart. coord. in units of alat)
               a(1) = (   1.000000   0.000000   0.000000 )  
               a(2) = (   0.000000   0.866026   0.000000 )  
               a(3) = (   0.000000   0.000000   0.748639 )  

     reciprocal axes: (cart. coord. in units 2 pi/alat)
               b(1) = (  1.000000  0.000000  0.000000 )  
               b(2) = (  0.000000  1.154700  0.000000 )  
               b(3) = (  0.000000  0.000000  1.335757 )  


     PseudoPot. # 1 for B  read from file:
     ./B.pbe-n-kjpaw_psl.1.0.0.UPF
     MD5 check sum: 8c825a5969375aca5c2c6ad5945b3059
     Pseudo is Projector augmented-wave + core cor, Zval =  3.0
     Generated using &quot;atomic&quot; code by A. Dal Corso  v.6.3
     Shape of augmentation charge: PSQ
     Using radial grid of 1059 points,  4 beta functions with: 
                l(1) =   0
                l(2) =   0
                l(3) =   1
                l(4) =   1
     Q(r) pseudized with 0 coefficients 


     PseudoPot. # 2 for N  read from file:
     ./N.pbe-n-kjpaw_psl.1.0.0.UPF
     MD5 check sum: 14c48229446f9f2d411169a3abcbc3fa
     Pseudo is Projector augmented-wave + core cor, Zval =  5.0
     Generated using &quot;atomic&quot; code by A. Dal Corso  v.6.3
     Shape of augmentation charge: PSQ
     Using radial grid of 1085 points,  4 beta functions with: 
                l(1) =   0
                l(2) =   0
                l(3) =   1
                l(4) =   1
     Q(r) pseudized with 0 coefficients 


     atomic species   valence    mass     pseudopotential
        B              3.00    10.81100     B ( 1.00)
        N              5.00    14.00670     N ( 1.00)

      2 Sym. Ops. (no inversion) found



   Cartesian axes

     site n.     atom                  positions (alat units)
         1           B   tau(   1) = (   0.9687500   0.0180422   0.1497278  )
         2           B   tau(   2) = (   0.9687500   0.1262954   0.1497278  )
         3           B   tau(   3) = (   0.9687500   0.2345486   0.1497278  )
         4           B   tau(   4) = (   0.9687500   0.3428018   0.1497278  )
         5           B   tau(   5) = (   0.9687500   0.4510550   0.1497278  )
         6           B   tau(   6) = (   0.9687500   0.5593082   0.1497278  )
         7           B   tau(   7) = (   0.9687500   0.6675614   0.1497278  )
         8           B   tau(   8) = (   0.9687500   0.7758146   0.1497278  )
         9           B   tau(   9) = (   0.0937500   0.0180422   0.1497278  )
        10           B   tau(  10) = (   0.0937500   0.1262954   0.1497278  )
        11           B   tau(  11) = (   0.0937500   0.2345486   0.1497278  )
        12           B   tau(  12) = (   0.0937500   0.3428018   0.1497278  )
        13           B   tau(  13) = (   0.0937500   0.4510550   0.1497278  )
        14           B   tau(  14) = (   0.0937500   0.5593082   0.1497278  )
        15           B   tau(  15) = (   0.0937500   0.6675614   0.1497278  )
        16           B   tau(  16) = (   0.0937500   0.7758146   0.1497278  )
        17           B   tau(  17) = (   0.2187500   0.0180422   0.1497278  )
        18           B   tau(  18) = (   0.2187500   0.1262954   0.1497278  )
        19           B   tau(  19) = (   0.2187500   0.2345486   0.1497278  )
        20           B   tau(  20) = (   0.2187500   0.3428018   0.1497278  )
        21           B   tau(  21) = (   0.2187500   0.4510550   0.1497278  )
        22           B   tau(  22) = (   0.2187500   0.5593082   0.1497278  )
        23           B   tau(  23) = (   0.2187500   0.6675614   0.1497278  )
        24           B   tau(  24) = (   0.2187500   0.7758146   0.1497278  )
        25           B   tau(  25) = (   0.3437500   0.0180422   0.1497278  )
        26           B   tau(  26) = (   0.3437500   0.1262954   0.1497278  )
        27           B   tau(  27) = (   0.3437500   0.2345486   0.1497278  )
        28           B   tau(  28) = (   0.3437500   0.3428018   0.1497278  )
        29           B   tau(  29) = (   0.3437500   0.4510550   0.1497278  )
        30           B   tau(  30) = (   0.3437500   0.5593082   0.1497278  )
        31           B   tau(  31) = (   0.3437500   0.6675614   0.1497278  )
        32           B   tau(  32) = (   0.3437500   0.7758146   0.1497278  )
        33           B   tau(  33) = (   0.4687500   0.0180422   0.1497278  )
        34           B   tau(  34) = (   0.4687500   0.1262954   0.1497278  )
        35           B   tau(  35) = (   0.4687500   0.2345486   0.1497278  )
        36           B   tau(  36) = (   0.4687500   0.3428018   0.1497278  )
        37           B   tau(  37) = (   0.4687500   0.4510550   0.1497278  )
        38           B   tau(  38) = (   0.4687500   0.5593082   0.1497278  )
        39           B   tau(  39) = (   0.4687500   0.6675614   0.1497278  )
        40           B   tau(  40) = (   0.4687500   0.7758146   0.1497278  )
        41           B   tau(  41) = (   0.5937500   0.0180422   0.1497278  )
        42           B   tau(  42) = (   0.5937500   0.1262954   0.1497278  )
        43           B   tau(  43) = (   0.5937500   0.2345486   0.1497278  )
        44           B   tau(  44) = (   0.5937500   0.3428018   0.1497278  )
        45           B   tau(  45) = (   0.5937500   0.4510550   0.1497278  )
        46           B   tau(  46) = (   0.5937500   0.5593082   0.1497278  )
        47           B   tau(  47) = (   0.5937500   0.6675614   0.1497278  )
        48           B   tau(  48) = (   0.5937500   0.7758146   0.1497278  )
        49           B   tau(  49) = (   0.7187500   0.0180422   0.1497278  )
        50           B   tau(  50) = (   0.7187500   0.1262954   0.1497278  )
        51           B   tau(  51) = (   0.7187500   0.2345486   0.1497278  )
        52           B   tau(  52) = (   0.7187500   0.3428018   0.1497278  )
        53           B   tau(  53) = (   0.7187500   0.4510550   0.1497278  )
        54           B   tau(  54) = (   0.7187500   0.5593082   0.1497278  )
        55           B   tau(  55) = (   0.7187500   0.6675614   0.1497278  )
        56           B   tau(  56) = (   0.7187500   0.7758146   0.1497278  )
        57           B   tau(  57) = (   0.8437500   0.0180422   0.1497278  )
        58           B   tau(  58) = (   0.8437500   0.1262954   0.1497278  )
        59           B   tau(  59) = (   0.8437500   0.2345486   0.1497278  )
        60           B   tau(  60) = (   0.8437500   0.3428018   0.1497278  )
        61           B   tau(  61) = (   0.8437500   0.4510550   0.1497278  )
        62           B   tau(  62) = (   0.8437500   0.5593082   0.1497278  )
        63           B   tau(  63) = (   0.8437500   0.6675614   0.1497278  )
        64           B   tau(  64) = (   0.8437500   0.7758146   0.1497278  )
        65           B   tau(  65) = (   0.0312500   0.0180422   0.1497278  )
        66           B   tau(  66) = (   0.0312500   0.1262954   0.1497278  )
        67           B   tau(  67) = (   0.0312500   0.2345486   0.1497278  )
        68           B   tau(  68) = (   0.0312500   0.3428018   0.1497278  )
        69           B   tau(  69) = (   0.0312500   0.4510550   0.1497278  )
        70           B   tau(  70) = (   0.0312500   0.5593082   0.1497278  )
        71           B   tau(  71) = (   0.0312500   0.6675614   0.1497278  )
        72           B   tau(  72) = (   0.0312500   0.7758146   0.1497278  )
        73           B   tau(  73) = (   0.1562500   0.0180422   0.1497278  )
        74           B   tau(  74) = (   0.1562500   0.1262954   0.1497278  )
        75           B   tau(  75) = (   0.1562500   0.2345486   0.1497278  )
        76           B   tau(  76) = (   0.1562500   0.3428018   0.1497278  )
        77           B   tau(  77) = (   0.1562500   0.4510550   0.1497278  )
        78           B   tau(  78) = (   0.1562500   0.5593082   0.1497278  )
        79           B   tau(  79) = (   0.1562500   0.6675614   0.1497278  )
        80           B   tau(  80) = (   0.1562500   0.7758146   0.1497278  )
        81           B   tau(  81) = (   0.2812500   0.0180422   0.1497278  )
        82           B   tau(  82) = (   0.2812500   0.1262954   0.1497278  )
        83           B   tau(  83) = (   0.2812500   0.2345486   0.1497278  )
        84           B   tau(  84) = (   0.2812500   0.3428018   0.1497278  )
        85           B   tau(  85) = (   0.2812500   0.4510550   0.1497278  )
        86           B   tau(  86) = (   0.2812500   0.5593082   0.1497278  )
        87           B   tau(  87) = (   0.2812500   0.6675614   0.1497278  )
        88           B   tau(  88) = (   0.2812500   0.7758146   0.1497278  )
        89           B   tau(  89) = (   0.4062500   0.0180422   0.1497278  )
        90           B   tau(  90) = (   0.4062500   0.1262954   0.1497278  )
        91           B   tau(  91) = (   0.4062500   0.2345486   0.1497278  )
        92           B   tau(  92) = (   0.4062500   0.3428018   0.1497278  )
        93           B   tau(  93) = (   0.4062500   0.4510550   0.1497278  )
        94           B   tau(  94) = (   0.4062500   0.5593082   0.1497278  )
        95           B   tau(  95) = (   0.4062500   0.6675614   0.1497278  )
        96           B   tau(  96) = (   0.4062500   0.7758146   0.1497278  )
        97           B   tau(  97) = (   0.5312500   0.0180422   0.1497278  )
        98           B   tau(  98) = (   0.5312500   0.1262954   0.1497278  )
        99           B   tau(  99) = (   0.5312500   0.2345486   0.1497278  )
       100           B   tau( 100) = (   0.5312500   0.3428018   0.1497278  )
       101           B   tau( 101) = (   0.5312500   0.4510550   0.1497278  )
       102           B   tau( 102) = (   0.5312500   0.5593082   0.1497278  )
       103           B   tau( 103) = (   0.5312500   0.6675614   0.1497278  )
       104           B   tau( 104) = (   0.5312500   0.7758146   0.1497278  )
       105           B   tau( 105) = (   0.6562500   0.0180422   0.1497278  )
       106           B   tau( 106) = (   0.6562500   0.1262954   0.1497278  )
       107           B   tau( 107) = (   0.6562500   0.2345486   0.1497278  )
       108           B   tau( 108) = (   0.6562500   0.3428018   0.1497278  )
       109           B   tau( 109) = (   0.6562500   0.4510550   0.1497278  )
       110           B   tau( 110) = (   0.6562500   0.5593082   0.1497278  )
       111           B   tau( 111) = (   0.6562500   0.6675614   0.1497278  )
       112           B   tau( 112) = (   0.6562500   0.7758146   0.1497278  )
       113           B   tau( 113) = (   0.7812500   0.0180422   0.1497278  )
       114           B   tau( 114) = (   0.7812500   0.1262954   0.1497278  )
       115           B   tau( 115) = (   0.7812500   0.2345486   0.1497278  )
       116           B   tau( 116) = (   0.7812500   0.3428018   0.1497278  )
       117           B   tau( 117) = (   0.7812500   0.4510550   0.1497278  )
       118           B   tau( 118) = (   0.7812500   0.5593082   0.1497278  )
       119           B   tau( 119) = (   0.7812500   0.6675614   0.1497278  )
       120           B   tau( 120) = (   0.7812500   0.7758146   0.1497278  )
       121           B   tau( 121) = (   0.9062500   0.0180422   0.1497278  )
       122           B   tau( 122) = (   0.9062500   0.1262954   0.1497278  )
       123           B   tau( 123) = (   0.9062500   0.2345486   0.1497278  )
       124           B   tau( 124) = (   0.9062500   0.3428018   0.1497278  )
       125           B   tau( 125) = (   0.9062500   0.4510550   0.1497278  )
       126           B   tau( 126) = (   0.9062500   0.5593082   0.1497278  )
       127           B   tau( 127) = (   0.9062500   0.6675614   0.1497278  )
       128           B   tau( 128) = (   0.9062500   0.7758146   0.1497278  )
       129           B   tau( 129) = (   0.0000000   0.8299412   0.1497278  )
       130           B   tau( 130) = (   0.0000000   0.0721688   0.1497278  )
       131           B   tau( 131) = (   0.0000000   0.1804220   0.1497278  )
       132           B   tau( 132) = (   0.0000000   0.2886752   0.1497278  )
       133           B   tau( 133) = (   0.0000000   0.3969284   0.1497278  )
       134           B   tau( 134) = (   0.0000000   0.5051816   0.1497278  )
       135           B   tau( 135) = (   0.0000000   0.6134348   0.1497278  )
       136           B   tau( 136) = (   0.0000000   0.7216880   0.1497278  )
       137           B   tau( 137) = (   0.1250000   0.8299412   0.1497278  )
       138           B   tau( 138) = (   0.1250000   0.0721688   0.1497278  )
       139           B   tau( 139) = (   0.1250000   0.1804220   0.1497278  )
       140           B   tau( 140) = (   0.1250000   0.2886752   0.1497278  )
       141           B   tau( 141) = (   0.1250000   0.3969284   0.1497278  )
       142           B   tau( 142) = (   0.1250000   0.5051816   0.1497278  )
       143           B   tau( 143) = (   0.1250000   0.6134348   0.1497278  )
       144           B   tau( 144) = (   0.1250000   0.7216880   0.1497278  )
       145           B   tau( 145) = (   0.2500000   0.8299412   0.1497278  )
       146           B   tau( 146) = (   0.2500000   0.0721688   0.1497278  )
       147           B   tau( 147) = (   0.2500000   0.1804220   0.1497278  )
       148           B   tau( 148) = (   0.2500000   0.2886752   0.1497278  )
       149           B   tau( 149) = (   0.2500000   0.3969284   0.1497278  )
       150           B   tau( 150) = (   0.2500000   0.5051816   0.1497278  )
       151           B   tau( 151) = (   0.2500000   0.6134348   0.1497278  )
       152           B   tau( 152) = (   0.2500000   0.7216880   0.1497278  )
       153           B   tau( 153) = (   0.3750000   0.8299412   0.1497278  )
       154           B   tau( 154) = (   0.3750000   0.0721688   0.1497278  )
       155           B   tau( 155) = (   0.3750000   0.1804220   0.1497278  )
       156           B   tau( 156) = (   0.3750000   0.2886752   0.1497278  )
       157           B   tau( 157) = (   0.3750000   0.3969284   0.1497278  )
       158           B   tau( 158) = (   0.3750000   0.5051816   0.1497278  )
       159           B   tau( 159) = (   0.3750000   0.6134348   0.1497278  )
       160           B   tau( 160) = (   0.3750000   0.7216880   0.1497278  )
       161           B   tau( 161) = (   0.5000000   0.8299412   0.1497278  )
       162           B   tau( 162) = (   0.5000000   0.0721688   0.1497278  )
       163           B   tau( 163) = (   0.5000000   0.1804220   0.1497278  )
       164           B   tau( 164) = (   0.5000000   0.2886752   0.1497278  )
       165           B   tau( 165) = (   0.5000000   0.3969284   0.1497278  )
       166           B   tau( 166) = (   0.5000000   0.5051816   0.1497278  )
       167           B   tau( 167) = (   0.5000000   0.6134348   0.1497278  )
       168           B   tau( 168) = (   0.5000000   0.7216880   0.1497278  )
       169           B   tau( 169) = (   0.6250000   0.8299412   0.1497278  )
       170           B   tau( 170) = (   0.6250000   0.0721688   0.1497278  )
       171           B   tau( 171) = (   0.6250000   0.1804220   0.1497278  )
       172           B   tau( 172) = (   0.6250000   0.2886752   0.1497278  )
       173           B   tau( 173) = (   0.6250000   0.3969284   0.1497278  )
       174           B   tau( 174) = (   0.6250000   0.5051816   0.1497278  )
       175           B   tau( 175) = (   0.6250000   0.6134348   0.1497278  )
       176           B   tau( 176) = (   0.6250000   0.7216880   0.1497278  )
       177           B   tau( 177) = (   0.7500000   0.8299412   0.1497278  )
       178           B   tau( 178) = (   0.7500000   0.0721688   0.1497278  )
       179           B   tau( 179) = (   0.7500000   0.1804220   0.1497278  )
       180           B   tau( 180) = (   0.7500000   0.2886752   0.1497278  )
       181           B   tau( 181) = (   0.7500000   0.3969284   0.1497278  )
       182           B   tau( 182) = (   0.7500000   0.5051816   0.1497278  )
       183           B   tau( 183) = (   0.7500000   0.6134348   0.1497278  )
       184           B   tau( 184) = (   0.7500000   0.7216880   0.1497278  )
       185           B   tau( 185) = (   0.8750000   0.8299412   0.1497278  )
       186           B   tau( 186) = (   0.8750000   0.0721688   0.1497278  )
       187           B   tau( 187) = (   0.8750000   0.1804220   0.1497278  )
       188           B   tau( 188) = (   0.8750000   0.2886752   0.1497278  )
       189           B   tau( 189) = (   0.8750000   0.3969284   0.1497278  )
       190           B   tau( 190) = (   0.8750000   0.5051816   0.1497278  )
       191           B   tau( 191) = (   0.8750000   0.6134348   0.1497278  )
       192           B   tau( 192) = (   0.8750000   0.7216880   0.1497278  )
       193           B   tau( 193) = (   0.0625000   0.8299412   0.1497278  )
       194           B   tau( 194) = (   0.0625000   0.0721688   0.1497278  )
       195           B   tau( 195) = (   0.0625000   0.1804220   0.1497278  )
       196           B   tau( 196) = (   0.0625000   0.2886752   0.1497278  )
       197           B   tau( 197) = (   0.0625000   0.3969284   0.1497278  )
       198           B   tau( 198) = (   0.0625000   0.5051816   0.1497278  )
       199           B   tau( 199) = (   0.0625000   0.6134348   0.1497278  )
       200           B   tau( 200) = (   0.0625000   0.7216880   0.1497278  )
       201           B   tau( 201) = (   0.1875000   0.8299412   0.1497278  )
       202           B   tau( 202) = (   0.1875000   0.0721688   0.1497278  )
       203           B   tau( 203) = (   0.1875000   0.1804220   0.1497278  )
       204           B   tau( 204) = (   0.1875000   0.2886752   0.1497278  )
       205           B   tau( 205) = (   0.1875000   0.3969284   0.1497278  )
       206           B   tau( 206) = (   0.1875000   0.5051816   0.1497278  )
       207           B   tau( 207) = (   0.1875000   0.6134348   0.1497278  )
       208           B   tau( 208) = (   0.1875000   0.7216880   0.1497278  )
       209           B   tau( 209) = (   0.3125000   0.8299412   0.1497278  )
       210           B   tau( 210) = (   0.3125000   0.0721688   0.1497278  )
       211           B   tau( 211) = (   0.3125000   0.1804220   0.1497278  )
       212           B   tau( 212) = (   0.3125000   0.2886752   0.1497278  )
       213           B   tau( 213) = (   0.3125000   0.3969284   0.1497278  )
       214           B   tau( 214) = (   0.3125000   0.5051816   0.1497278  )
       215           B   tau( 215) = (   0.3125000   0.6134348   0.1497278  )
       216           B   tau( 216) = (   0.3125000   0.7216880   0.1497278  )
       217           B   tau( 217) = (   0.4375000   0.8299412   0.1497278  )
       218           B   tau( 218) = (   0.4375000   0.0721688   0.1497278  )
       219           B   tau( 219) = (   0.4375000   0.1804220   0.1497278  )
       220           B   tau( 220) = (   0.4375000   0.2886752   0.1497278  )
       221           B   tau( 221) = (   0.4375000   0.3969284   0.1497278  )
       222           B   tau( 222) = (   0.4375000   0.5051816   0.1497278  )
       223           B   tau( 223) = (   0.4375000   0.6134348   0.1497278  )
       224           B   tau( 224) = (   0.4375000   0.7216880   0.1497278  )
       225           B   tau( 225) = (   0.5625000   0.8299412   0.1497278  )
       226           B   tau( 226) = (   0.5625000   0.0721688   0.1497278  )
       227           B   tau( 227) = (   0.5625000   0.1804220   0.1497278  )
       228           B   tau( 228) = (   0.5625000   0.2886752   0.1497278  )
       229           B   tau( 229) = (   0.5625000   0.3969284   0.1497278  )
       230           B   tau( 230) = (   0.5625000   0.5051816   0.1497278  )
       231           B   tau( 231) = (   0.5625000   0.6134348   0.1497278  )
       232           B   tau( 232) = (   0.5625000   0.7216880   0.1497278  )
       233           B   tau( 233) = (   0.6875000   0.8299412   0.1497278  )
       234           B   tau( 234) = (   0.6875000   0.0721688   0.1497278  )
       235           B   tau( 235) = (   0.6875000   0.1804220   0.1497278  )
       236           B   tau( 236) = (   0.6875000   0.2886752   0.1497278  )
       237           B   tau( 237) = (   0.6875000   0.3969284   0.1497278  )
       238           B   tau( 238) = (   0.6875000   0.5051816   0.1497278  )
       239           B   tau( 239) = (   0.6875000   0.6134348   0.1497278  )
       240           B   tau( 240) = (   0.6875000   0.7216880   0.1497278  )
       241           B   tau( 241) = (   0.8125000   0.8299412   0.1497278  )
       242           B   tau( 242) = (   0.8125000   0.0721688   0.1497278  )
       243           B   tau( 243) = (   0.8125000   0.1804220   0.1497278  )
       244           B   tau( 244) = (   0.8125000   0.2886752   0.1497278  )
       245           B   tau( 245) = (   0.8125000   0.3969284   0.1497278  )
       246           B   tau( 246) = (   0.8125000   0.5051816   0.1497278  )
       247           B   tau( 247) = (   0.8125000   0.6134348   0.1497278  )
       248           B   tau( 248) = (   0.8125000   0.7216880   0.1497278  )
       249           B   tau( 249) = (   0.9375000   0.8299412   0.1497278  )
       250           B   tau( 250) = (   0.9375000   0.0721688   0.1497278  )
       251           B   tau( 251) = (   0.9375000   0.1804220   0.1497278  )
       252           B   tau( 252) = (   0.9375000   0.2886752   0.1497278  )
       253           B   tau( 253) = (   0.9375000   0.3969284   0.1497278  )
       254           B   tau( 254) = (   0.9375000   0.5051816   0.1497278  )
       255           B   tau( 255) = (   0.9375000   0.6134348   0.1497278  )
       256           B   tau( 256) = (   0.9375000   0.7216880   0.1497278  )
       257           N   tau( 257) = (   0.9687500   0.8479833   0.1497278  )
       258           N   tau( 258) = (   0.9687500   0.0902110   0.1497278  )
       259           N   tau( 259) = (   0.9687500   0.1984642   0.1497278  )
       260           N   tau( 260) = (   0.9687500   0.3067174   0.1497278  )
       261           N   tau( 261) = (   0.9687500   0.4149705   0.1497278  )
       262           N   tau( 262) = (   0.9687500   0.5232237   0.1497278  )
       263           N   tau( 263) = (   0.9687500   0.6314769   0.1497278  )
       264           N   tau( 264) = (   0.9687500   0.7397301   0.1497278  )
       265           N   tau( 265) = (   0.0937500   0.8479833   0.1497278  )
       266           N   tau( 266) = (   0.0937500   0.0902110   0.1497278  )
       267           N   tau( 267) = (   0.0937500   0.1984642   0.1497278  )
       268           N   tau( 268) = (   0.0937500   0.3067174   0.1497278  )
       269           N   tau( 269) = (   0.0937500   0.4149705   0.1497278  )
       270           N   tau( 270) = (   0.0937500   0.5232237   0.1497278  )
       271           N   tau( 271) = (   0.0937500   0.6314769   0.1497278  )
       272           N   tau( 272) = (   0.0937500   0.7397301   0.1497278  )
       273           N   tau( 273) = (   0.2187500   0.8479833   0.1497278  )
       274           N   tau( 274) = (   0.2187500   0.0902110   0.1497278  )
       275           N   tau( 275) = (   0.2187500   0.1984642   0.1497278  )
       276           N   tau( 276) = (   0.2187500   0.3067174   0.1497278  )
       277           N   tau( 277) = (   0.2187500   0.4149705   0.1497278  )
       278           N   tau( 278) = (   0.2187500   0.5232237   0.1497278  )
       279           N   tau( 279) = (   0.2187500   0.6314769   0.1497278  )
       280           N   tau( 280) = (   0.2187500   0.7397301   0.1497278  )
       281           N   tau( 281) = (   0.3437500   0.8479833   0.1497278  )
       282           N   tau( 282) = (   0.3437500   0.0902110   0.1497278  )
       283           N   tau( 283) = (   0.3437500   0.1984642   0.1497278  )
       284           N   tau( 284) = (   0.3437500   0.3067174   0.1497278  )
       285           N   tau( 285) = (   0.3437500   0.4149705   0.1497278  )
       286           N   tau( 286) = (   0.3437500   0.5232237   0.1497278  )
       287           N   tau( 287) = (   0.3437500   0.6314769   0.1497278  )
       288           N   tau( 288) = (   0.3437500   0.7397301   0.1497278  )
       289           N   tau( 289) = (   0.4687500   0.8479833   0.1497278  )
       290           N   tau( 290) = (   0.4687500   0.0902110   0.1497278  )
       291           N   tau( 291) = (   0.4687500   0.1984642   0.1497278  )
       292           N   tau( 292) = (   0.4687500   0.3067174   0.1497278  )
       293           N   tau( 293) = (   0.4687500   0.4149705   0.1497278  )
       294           N   tau( 294) = (   0.4687500   0.5232237   0.1497278  )
       295           N   tau( 295) = (   0.4687500   0.6314769   0.1497278  )
       296           N   tau( 296) = (   0.4687500   0.7397301   0.1497278  )
       297           N   tau( 297) = (   0.5937500   0.8479833   0.1497278  )
       298           N   tau( 298) = (   0.5937500   0.0902110   0.1497278  )
       299           N   tau( 299) = (   0.5937500   0.1984642   0.1497278  )
       300           N   tau( 300) = (   0.5937500   0.3067174   0.1497278  )
       301           N   tau( 301) = (   0.5937500   0.4149705   0.1497278  )
       302           N   tau( 302) = (   0.5937500   0.5232237   0.1497278  )
       303           N   tau( 303) = (   0.5937500   0.6314769   0.1497278  )
       304           N   tau( 304) = (   0.5937500   0.7397301   0.1497278  )
       305           N   tau( 305) = (   0.7187500   0.8479833   0.1497278  )
       306           N   tau( 306) = (   0.7187500   0.0902110   0.1497278  )
       307           N   tau( 307) = (   0.7187500   0.1984642   0.1497278  )
       308           N   tau( 308) = (   0.7187500   0.3067174   0.1497278  )
       309           N   tau( 309) = (   0.7187500   0.4149705   0.1497278  )
       310           N   tau( 310) = (   0.7187500   0.5232237   0.1497278  )
       311           N   tau( 311) = (   0.7187500   0.6314769   0.1497278  )
       312           N   tau( 312) = (   0.7187500   0.7397301   0.1497278  )
       313           N   tau( 313) = (   0.8437500   0.8479833   0.1497278  )
       314           N   tau( 314) = (   0.8437500   0.0902110   0.1497278  )
       315           N   tau( 315) = (   0.8437500   0.1984642   0.1497278  )
       316           N   tau( 316) = (   0.8437500   0.3067174   0.1497278  )
       317           N   tau( 317) = (   0.8437500   0.4149705   0.1497278  )
       318           N   tau( 318) = (   0.8437500   0.5232237   0.1497278  )
       319           N   tau( 319) = (   0.8437500   0.6314769   0.1497278  )
       320           N   tau( 320) = (   0.8437500   0.7397301   0.1497278  )
       321           N   tau( 321) = (   0.0312500   0.8479833   0.1497278  )
       322           N   tau( 322) = (   0.0312500   0.0902110   0.1497278  )
       323           N   tau( 323) = (   0.0312500   0.1984642   0.1497278  )
       324           N   tau( 324) = (   0.0312500   0.3067174   0.1497278  )
       325           N   tau( 325) = (   0.0312500   0.4149705   0.1497278  )
       326           N   tau( 326) = (   0.0312500   0.5232237   0.1497278  )
       327           N   tau( 327) = (   0.0312500   0.6314769   0.1497278  )
       328           N   tau( 328) = (   0.0312500   0.7397301   0.1497278  )
       329           N   tau( 329) = (   0.1562500   0.8479833   0.1497278  )
       330           N   tau( 330) = (   0.1562500   0.0902110   0.1497278  )
       331           N   tau( 331) = (   0.1562500   0.1984642   0.1497278  )
       332           N   tau( 332) = (   0.1562500   0.3067174   0.1497278  )
       333           N   tau( 333) = (   0.1562500   0.4149705   0.1497278  )
       334           N   tau( 334) = (   0.1562500   0.5232237   0.1497278  )
       335           N   tau( 335) = (   0.1562500   0.6314769   0.1497278  )
       336           N   tau( 336) = (   0.1562500   0.7397301   0.1497278  )
       337           N   tau( 337) = (   0.2812500   0.8479833   0.1497278  )
       338           N   tau( 338) = (   0.2812500   0.0902110   0.1497278  )
       339           N   tau( 339) = (   0.2812500   0.1984642   0.1497278  )
       340           N   tau( 340) = (   0.2812500   0.3067174   0.1497278  )
       341           N   tau( 341) = (   0.2812500   0.4149705   0.1497278  )
       342           N   tau( 342) = (   0.2812500   0.5232237   0.1497278  )
       343           N   tau( 343) = (   0.2812500   0.6314769   0.1497278  )
       344           N   tau( 344) = (   0.2812500   0.7397301   0.1497278  )
       345           N   tau( 345) = (   0.4062500   0.8479833   0.1497278  )
       346           N   tau( 346) = (   0.4062500   0.0902110   0.1497278  )
       347           N   tau( 347) = (   0.4062500   0.1984642   0.1497278  )
       348           N   tau( 348) = (   0.4062500   0.3067174   0.1497278  )
       349           N   tau( 349) = (   0.4062500   0.4149705   0.1497278  )
       350           N   tau( 350) = (   0.4062500   0.5232237   0.1497278  )
       351           N   tau( 351) = (   0.4062500   0.6314769   0.1497278  )
       352           N   tau( 352) = (   0.4062500   0.7397301   0.1497278  )
       353           N   tau( 353) = (   0.5312500   0.8479833   0.1497278  )
       354           N   tau( 354) = (   0.5312500   0.0902110   0.1497278  )
       355           N   tau( 355) = (   0.5312500   0.1984642   0.1497278  )
       356           N   tau( 356) = (   0.5312500   0.3067174   0.1497278  )
       357           N   tau( 357) = (   0.5312500   0.4149705   0.1497278  )
       358           N   tau( 358) = (   0.5312500   0.5232237   0.1497278  )
       359           N   tau( 359) = (   0.5312500   0.6314769   0.1497278  )
       360           N   tau( 360) = (   0.5312500   0.7397301   0.1497278  )
       361           N   tau( 361) = (   0.6562500   0.8479833   0.1497278  )
       362           N   tau( 362) = (   0.6562500   0.0902110   0.1497278  )
       363           N   tau( 363) = (   0.6562500   0.1984642   0.1497278  )
       364           N   tau( 364) = (   0.6562500   0.3067174   0.1497278  )
       365           N   tau( 365) = (   0.6562500   0.4149705   0.1497278  )
       366           N   tau( 366) = (   0.6562500   0.5232237   0.1497278  )
       367           N   tau( 367) = (   0.6562500   0.6314769   0.1497278  )
       368           N   tau( 368) = (   0.6562500   0.7397301   0.1497278  )
       369           N   tau( 369) = (   0.7812500   0.8479833   0.1497278  )
       370           N   tau( 370) = (   0.7812500   0.0902110   0.1497278  )
       371           N   tau( 371) = (   0.7812500   0.1984642   0.1497278  )
       372           N   tau( 372) = (   0.7812500   0.3067174   0.1497278  )
       373           N   tau( 373) = (   0.7812500   0.4149705   0.1497278  )
       374           N   tau( 374) = (   0.7812500   0.5232237   0.1497278  )
       375           N   tau( 375) = (   0.7812500   0.6314769   0.1497278  )
       376           N   tau( 376) = (   0.7812500   0.7397301   0.1497278  )
       377           N   tau( 377) = (   0.9062500   0.8479833   0.1497278  )
       378           N   tau( 378) = (   0.9062500   0.0902110   0.1497278  )
       379           N   tau( 379) = (   0.9062500   0.1984642   0.1497278  )
       380           N   tau( 380) = (   0.9062500   0.3067174   0.1497278  )
       381           N   tau( 381) = (   0.9062500   0.4149705   0.1497278  )
       382           N   tau( 382) = (   0.9062500   0.5232237   0.1497278  )
       383           N   tau( 383) = (   0.9062500   0.6314769   0.1497278  )
       384           N   tau( 384) = (   0.9062500   0.7397301   0.1497278  )
       385           N   tau( 385) = (   0.0000000   0.0360844   0.1497278  )
       386           N   tau( 386) = (   0.0000000   0.1443376   0.1497278  )
       387           N   tau( 387) = (   0.0000000   0.2525908   0.1497278  )
       388           N   tau( 388) = (   0.0000000   0.3608439   0.1497278  )
       389           N   tau( 389) = (   0.0000000   0.4690971   0.1497278  )
       390           N   tau( 390) = (   0.0000000   0.5773503   0.1497278  )
       391           N   tau( 391) = (   0.0000000   0.6856035   0.1497278  )
       392           N   tau( 392) = (   0.0000000   0.7938567   0.1497278  )
       393           N   tau( 393) = (   0.1250000   0.0360844   0.1497278  )
       394           N   tau( 394) = (   0.1250000   0.1443376   0.1497278  )
       395           N   tau( 395) = (   0.1250000   0.2525908   0.1497278  )
       396           N   tau( 396) = (   0.1250000   0.3608439   0.1497278  )
       397           N   tau( 397) = (   0.1250000   0.4690971   0.1497278  )
       398           N   tau( 398) = (   0.1250000   0.5773503   0.1497278  )
       399           N   tau( 399) = (   0.1250000   0.6856035   0.1497278  )
       400           N   tau( 400) = (   0.1250000   0.7938567   0.1497278  )
       401           N   tau( 401) = (   0.2500000   0.0360844   0.1497278  )
       402           N   tau( 402) = (   0.2500000   0.1443376   0.1497278  )
       403           N   tau( 403) = (   0.2500000   0.2525908   0.1497278  )
       404           N   tau( 404) = (   0.2500000   0.3608439   0.1497278  )
       405           N   tau( 405) = (   0.2500000   0.4690971   0.1497278  )
       406           N   tau( 406) = (   0.2500000   0.5773503   0.1497278  )
       407           N   tau( 407) = (   0.2500000   0.6856035   0.1497278  )
       408           N   tau( 408) = (   0.2500000   0.7938567   0.1497278  )
       409           N   tau( 409) = (   0.3750000   0.0360844   0.1497278  )
       410           N   tau( 410) = (   0.3750000   0.1443376   0.1497278  )
       411           N   tau( 411) = (   0.3750000   0.2525908   0.1497278  )
       412           N   tau( 412) = (   0.3750000   0.3608439   0.1497278  )
       413           N   tau( 413) = (   0.3750000   0.4690971   0.1497278  )
       414           N   tau( 414) = (   0.3750000   0.5773503   0.1497278  )
       415           N   tau( 415) = (   0.3750000   0.6856035   0.1497278  )
       416           N   tau( 416) = (   0.3750000   0.7938567   0.1497278  )
       417           N   tau( 417) = (   0.5000000   0.0360844   0.1497278  )
       418           N   tau( 418) = (   0.5000000   0.1443376   0.1497278  )
       419           N   tau( 419) = (   0.5000000   0.2525908   0.1497278  )
       420           N   tau( 420) = (   0.5000000   0.3608439   0.1497278  )
       421           N   tau( 421) = (   0.5000000   0.4690971   0.1497278  )
       422           N   tau( 422) = (   0.5000000   0.5773503   0.1497278  )
       423           N   tau( 423) = (   0.5000000   0.6856035   0.1497278  )
       424           N   tau( 424) = (   0.5000000   0.7938567   0.1497278  )
       425           N   tau( 425) = (   0.6250000   0.0360844   0.1497278  )
       426           N   tau( 426) = (   0.6250000   0.1443376   0.1497278  )
       427           N   tau( 427) = (   0.6250000   0.2525908   0.1497278  )
       428           N   tau( 428) = (   0.6250000   0.3608439   0.1497278  )
       429           N   tau( 429) = (   0.6250000   0.4690971   0.1497278  )
       430           N   tau( 430) = (   0.6250000   0.5773503   0.1497278  )
       431           N   tau( 431) = (   0.6250000   0.6856035   0.1497278  )
       432           N   tau( 432) = (   0.6250000   0.7938567   0.1497278  )
       433           N   tau( 433) = (   0.7500000   0.0360844   0.1497278  )
       434           N   tau( 434) = (   0.7500000   0.1443376   0.1497278  )
       435           N   tau( 435) = (   0.7500000   0.2525908   0.1497278  )
       436           N   tau( 436) = (   0.7500000   0.3608439   0.1497278  )
       437           N   tau( 437) = (   0.7500000   0.4690971   0.1497278  )
       438           N   tau( 438) = (   0.7500000   0.5773503   0.1497278  )
       439           N   tau( 439) = (   0.7500000   0.6856035   0.1497278  )
       440           N   tau( 440) = (   0.7500000   0.7938567   0.1497278  )
       441           N   tau( 441) = (   0.8750000   0.0360844   0.1497278  )
       442           N   tau( 442) = (   0.8750000   0.1443376   0.1497278  )
       443           N   tau( 443) = (   0.8750000   0.2525908   0.1497278  )
       444           N   tau( 444) = (   0.8750000   0.3608439   0.1497278  )
       445           N   tau( 445) = (   0.8750000   0.4690971   0.1497278  )
       446           N   tau( 446) = (   0.8750000   0.5773503   0.1497278  )
       447           N   tau( 447) = (   0.8750000   0.6856035   0.1497278  )
       448           N   tau( 448) = (   0.8750000   0.7938567   0.1497278  )
       449           N   tau( 449) = (   0.0625000   0.0360844   0.1497278  )
       450           N   tau( 450) = (   0.0625000   0.1443376   0.1497278  )
       451           N   tau( 451) = (   0.0625000   0.2525908   0.1497278  )
       452           N   tau( 452) = (   0.0625000   0.3608439   0.1497278  )
       453           N   tau( 453) = (   0.0625000   0.4690971   0.1497278  )
       454           N   tau( 454) = (   0.0625000   0.5773503   0.1497278  )
       455           N   tau( 455) = (   0.0625000   0.6856035   0.1497278  )
       456           N   tau( 456) = (   0.0625000   0.7938567   0.1497278  )
       457           N   tau( 457) = (   0.1875000   0.0360844   0.1497278  )
       458           N   tau( 458) = (   0.1875000   0.1443376   0.1497278  )
       459           N   tau( 459) = (   0.1875000   0.2525908   0.1497278  )
       460           N   tau( 460) = (   0.1875000   0.3608439   0.1497278  )
       461           N   tau( 461) = (   0.1875000   0.4690971   0.1497278  )
       462           N   tau( 462) = (   0.1875000   0.5773503   0.1497278  )
       463           N   tau( 463) = (   0.1875000   0.6856035   0.1497278  )
       464           N   tau( 464) = (   0.1875000   0.7938567   0.1497278  )
       465           N   tau( 465) = (   0.3125000   0.0360844   0.1497278  )
       466           N   tau( 466) = (   0.3125000   0.1443376   0.1497278  )
       467           N   tau( 467) = (   0.3125000   0.2525908   0.1497278  )
       468           N   tau( 468) = (   0.3125000   0.3608439   0.1497278  )
       469           N   tau( 469) = (   0.3125000   0.4690971   0.1497278  )
       470           N   tau( 470) = (   0.3125000   0.5773503   0.1497278  )
       471           N   tau( 471) = (   0.3125000   0.6856035   0.1497278  )
       472           N   tau( 472) = (   0.3125000   0.7938567   0.1497278  )
       473           N   tau( 473) = (   0.4375000   0.0360844   0.1497278  )
       474           N   tau( 474) = (   0.4375000   0.1443376   0.1497278  )
       475           N   tau( 475) = (   0.4375000   0.2525908   0.1497278  )
       476           N   tau( 476) = (   0.4375000   0.3608439   0.1497278  )
       477           N   tau( 477) = (   0.4375000   0.4690971   0.1497278  )
       478           N   tau( 478) = (   0.4375000   0.5773503   0.1497278  )
       479           N   tau( 479) = (   0.4375000   0.6856035   0.1497278  )
       480           N   tau( 480) = (   0.4375000   0.7938567   0.1497278  )
       481           N   tau( 481) = (   0.5625000   0.0360844   0.1497278  )
       482           N   tau( 482) = (   0.5625000   0.1443376   0.1497278  )
       483           N   tau( 483) = (   0.5625000   0.2525908   0.1497278  )
       484           N   tau( 484) = (   0.5625000   0.3608439   0.1497278  )
       485           N   tau( 485) = (   0.5625000   0.4690971   0.1497278  )
       486           N   tau( 486) = (   0.5625000   0.5773503   0.1497278  )
       487           N   tau( 487) = (   0.5625000   0.6856035   0.1497278  )
       488           N   tau( 488) = (   0.5625000   0.7938567   0.1497278  )
       489           N   tau( 489) = (   0.6875000   0.0360844   0.1497278  )
       490           N   tau( 490) = (   0.6875000   0.1443376   0.1497278  )
       491           N   tau( 491) = (   0.6875000   0.2525908   0.1497278  )
       492           N   tau( 492) = (   0.6875000   0.3608439   0.1497278  )
       493           N   tau( 493) = (   0.6875000   0.4690971   0.1497278  )
       494           N   tau( 494) = (   0.6875000   0.5773503   0.1497278  )
       495           N   tau( 495) = (   0.6875000   0.6856035   0.1497278  )
       496           N   tau( 496) = (   0.6875000   0.7938567   0.1497278  )
       497           N   tau( 497) = (   0.8125000   0.0360844   0.1497278  )
       498           N   tau( 498) = (   0.8125000   0.1443376   0.1497278  )
       499           N   tau( 499) = (   0.8125000   0.2525908   0.1497278  )
       500           N   tau( 500) = (   0.8125000   0.3608439   0.1497278  )
       501           N   tau( 501) = (   0.8125000   0.4690971   0.1497278  )
       502           N   tau( 502) = (   0.8125000   0.5773503   0.1497278  )
       503           N   tau( 503) = (   0.8125000   0.6856035   0.1497278  )
       504           N   tau( 504) = (   0.8125000   0.7938567   0.1497278  )
       505           N   tau( 505) = (   0.9375000   0.0360844   0.1497278  )
       506           N   tau( 506) = (   0.9375000   0.1443376   0.1497278  )
       507           N   tau( 507) = (   0.9375000   0.2525908   0.1497278  )
       508           N   tau( 508) = (   0.9375000   0.3608439   0.1497278  )
       509           N   tau( 509) = (   0.9375000   0.4690971   0.1497278  )
       510           N   tau( 510) = (   0.9375000   0.5773503   0.1497278  )
       511           N   tau( 511) = (   0.9375000   0.6856035   0.1497278  )
       512           N   tau( 512) = (   0.9375000   0.7938567   0.1497278  )

     number of k points=     4
                       cart. coord. in units 2pi/alat
        k(    1) = (   0.0000000   0.0000000   0.0000000), wk =   0.2222222
        k(    2) = (   0.0000000   0.3849001   0.0000000), wk =   0.4444444
        k(    3) = (   0.3333333   0.0000000   0.0000000), wk =   0.4444444
        k(    4) = (   0.3333333   0.3849001   0.0000000), wk =   0.8888889

     Dense  grid: 14036177 G-vectors     FFT dimensions: ( 360, 300, 270)

     Estimated max dynamical RAM per process >       3.32 GB

     Estimated total dynamical RAM >     425.01 GB

     Check: negative core charge=   -0.000007

     Initial potential from superposition of free atoms

     starting charge    2047.9258, renormalised to    2048.0000

     negative rho (up, down):  2.251E-01 0.000E+00
     Starting wfcs are 2048 randomized atomic wfcs
     Checking if some PAW data can be deallocated... 

     total cpu time spent up to now is      837.6 secs

     Self-consistent Calculation

     iteration #  1     ecut=    51.45 Ry     beta= 0.70
     Davidson diagonalization with overlap
     ethr =  1.00E-02,  avg # of iterations =  2.0

     negative rho (up, down):  5.918E-01 0.000E+00

     total cpu time spent up to now is     2544.8 secs

     total energy              =  -10166.48009851 Ry
     estimated scf accuracy    <     108.62889007 Ry

     iteration #  2     ecut=    51.45 Ry     beta= 0.70
     Davidson diagonalization with overlap
     ethr =  5.30E-03,  avg # of iterations =  3.0

     negative rho (up, down):  6.465E-01 0.000E+00

     total cpu time spent up to now is     4451.1 secs

     total energy              =  -10198.18470998 Ry
     estimated scf accuracy    <      47.79448039 Ry

     iteration #  3     ecut=    51.45 Ry     beta= 0.70
     Davidson diagonalization with overlap
     ethr =  2.33E-03,  avg # of iterations =  2.0

     negative rho (up, down):  7.861E-01 0.000E+00

     total cpu time spent up to now is     6036.9 secs

     total energy              =  -10204.42219695 Ry
     estimated scf accuracy    <       1.10413720 Ry

     iteration #  4     ecut=    51.45 Ry     beta= 0.70
     Davidson diagonalization with overlap
     ethr =  5.39E-05,  avg # of iterations =  5.0

     negative rho (up, down):  7.867E-01 0.000E+00

     total cpu time spent up to now is     8189.0 secs

     total energy              =  -10205.38080732 Ry
     estimated scf accuracy    <       1.44470639 Ry

     iteration #  5     ecut=    51.45 Ry     beta= 0.70
     Davidson diagonalization with overlap
     ethr =  5.39E-05,  avg # of iterations =  1.0

     negative rho (up, down):  8.224E-01 0.000E+00

     total cpu time spent up to now is     9241.3 secs

     total energy              =  -10205.07427951 Ry
     estimated scf accuracy    <       0.53995211 Ry

     iteration #  6     ecut=    51.45 Ry     beta= 0.70
     Davidson diagonalization with overlap
     ethr =  2.64E-05,  avg # of iterations =  3.0

     negative rho (up, down):  8.142E-01 0.000E+00

     total cpu time spent up to now is    11103.0 secs

     total energy              =  -10205.28179541 Ry
     estimated scf accuracy    <       0.18585957 Ry

     iteration #  7     ecut=    51.45 Ry     beta= 0.70
     Davidson diagonalization with overlap
     ethr =  9.08E-06,  avg # of iterations =  2.0

     negative rho (up, down):  8.128E-01 0.000E+00

     total cpu time spent up to now is    12332.8 secs

     total energy              =  -10205.29177918 Ry
     estimated scf accuracy    <       0.02478001 Ry

     iteration #  8     ecut=    51.45 Ry     beta= 0.70
     Davidson diagonalization with overlap
     c_bands:  4 eigenvalues not converged
     ethr =  1.21E-06,  avg # of iterations = 17.2

     negative rho (up, down):  8.106E-01 0.000E+00

     total cpu time spent up to now is    14496.6 secs

     total energy              =  -10205.28872709 Ry
     estimated scf accuracy    <       0.01093294 Ry

     iteration #  9     ecut=    51.45 Ry     beta= 0.70
     Davidson diagonalization with overlap
     ethr =  5.34E-07,  avg # of iterations =  7.0

     negative rho (up, down):  8.103E-01 0.000E+00

     total cpu time spent up to now is    16412.8 secs

     total energy              =  -10205.29222476 Ry
     estimated scf accuracy    <       0.00013232 Ry

     iteration # 10     ecut=    51.45 Ry     beta= 0.70
     Davidson diagonalization with overlap
     c_bands:  3 eigenvalues not converged
     ethr =  6.46E-09,  avg # of iterations =  9.5

     negative rho (up, down):  8.104E-01 0.000E+00

     total cpu time spent up to now is    18302.1 secs

     total energy              =  -10205.29224525 Ry
     estimated scf accuracy    <       0.00031054 Ry

     iteration # 11     ecut=    51.45 Ry     beta= 0.70
     Davidson diagonalization with overlap
     c_bands:  4 eigenvalues not converged
     ethr =  6.46E-09,  avg # of iterations = 10.8

     negative rho (up, down):  8.105E-01 0.000E+00

     total cpu time spent up to now is    19852.8 secs

     total energy              =  -10205.29220155 Ry
     estimated scf accuracy    <       0.00014371 Ry

     iteration # 12     ecut=    51.45 Ry     beta= 0.70
     Davidson diagonalization with overlap
     ethr =  6.46E-09,  avg # of iterations =  5.0

     negative rho (up, down):  8.105E-01 0.000E+00

     total cpu time spent up to now is    21293.2 secs

     total energy              =  -10205.29220691 Ry
     estimated scf accuracy    <       0.00001559 Ry

     iteration # 13     ecut=    51.45 Ry     beta= 0.70
     Davidson diagonalization with overlap
     ethr =  7.61E-10,  avg # of iterations =  4.5

     negative rho (up, down):  8.105E-01 0.000E+00

     total cpu time spent up to now is    23185.3 secs

     total energy              =  -10205.29221246 Ry
     estimated scf accuracy    <       0.00000157 Ry

     iteration # 14     ecut=    51.45 Ry     beta= 0.70
     Davidson diagonalization with overlap
     ethr =  7.68E-11,  avg # of iterations =  2.8

     negative rho (up, down):  8.105E-01 0.000E+00

     total cpu time spent up to now is    24479.9 secs

     End of self-consistent calculation

          k = 0.0000 0.0000 0.0000 (****** PWs)   bands (ev):

   -22.3138 -22.2573 -22.2573 -22.2385 -22.2385 -22.1823 -22.1823 -22.1823
   -22.1823 -22.0891 -22.0891 -22.0152 -22.0150 -22.0150 -22.0150 -22.0150
   -22.0147 -21.9598 -21.9598 -21.9593 -21.9593 -21.8130 -21.8130 -21.7951
   -21.7951 -21.7946 -21.7946 -21.7406 -21.7406 -21.7406 -21.7406 -21.6505
   -21.6505 -21.5966 -21.5966 -21.5966 -21.5966 -21.5259 -21.5259 -21.5254
   -21.5254 -21.4369 -21.4367 -21.4367 -21.4367 -21.4367 -21.4365 -21.3672
   -21.3672 -21.3668 -21.3668 -21.1765 -21.1765 -21.1765 -21.1765 -21.1613
   -21.1610 -21.1609 -21.1609 -21.1609 -21.1605 -21.1093 -21.1093 -21.1092
   -21.1092 -20.9728 -20.9728 -20.9565 -20.9565 -20.9565 -20.9565 -20.9079
   -20.9079 -20.9079 -20.9079 -20.8279 -20.8279 -20.8275 -20.8275 -20.7171
   -20.7171 -20.7166 -20.7166 -20.7104 -20.7104 -20.7104 -20.7104 -20.5771
   -20.5771 -20.5286 -20.5286 -20.5286 -20.5286 -20.4428 -20.4428 -20.4108
   -20.4108 -20.4108 -20.4108 -20.3865 -20.3863 -20.3862 -20.3862 -20.3862
   -20.3862 -20.3862 -20.3862 -20.3862 -20.3862 -20.3861 -20.3859 -20.2212
   -20.2212 -20.2208 -20.2208 -20.1603 -20.1603 -20.1603 -20.1603 -20.0120
   -20.0120 -20.0120 -20.0120 -19.9626 -19.9621 -19.9621 -19.9621 -19.9621
   -19.9617 -19.9183 -19.9183 -19.9174 -19.9174 -19.8824 -19.8824 -19.8720
   -19.8720 -19.8716 -19.8716 -19.8403 -19.8403 -19.8403 -19.8403 -19.7896
   -19.7896 -19.7887 -19.7887 -19.7207 -19.7207 -19.7203 -19.7203 -19.6373
   -19.6373 -19.6373 -19.6373 -19.5905 -19.5905 -19.5897 -19.5897 -19.5596
   -19.5596 -19.5596 -19.5596 -19.5435 -19.5435 -19.5435 -19.5435 -19.4437
   -19.4437 -19.4040 -19.4040 -19.4040 -19.4040 -19.3499 -19.3494 -19.3493
   -19.3493 -19.3491 -19.3487 -19.3430 -19.3430 -19.3430 -19.3430 -19.3323
   -19.3323 -19.3323 -19.3323 -19.2906 -19.2904 -19.2903 -19.2903 -19.2903
   -19.2903 -19.2902 -19.2902 -19.2902 -19.2902 -19.2901 -19.2899 -19.2466
   -19.2466 -19.2466 -19.2466 -19.2280 -19.2280 -19.2279 -19.1906 -19.1906
   -19.1592 -19.1592 -19.1592 -19.1592 -19.1205 -19.1205 -19.1205 -19.1205
   -19.1187 -19.1187 -19.1181 -19.1181 -19.0844 -19.0844 -19.0245 -19.0245
   -19.0241 -19.0241 -18.9795 -18.9795 -18.9789 -18.9789 -18.9484 -18.9484
   -18.9484 -18.9484 -18.9309 -18.9309 -18.9305 -18.9305 -18.9293 -18.9293
   -18.9249 -18.9249 -18.7830 -18.7830 -18.7830 -18.7830 -18.7646 -18.7644
   -18.7644 -18.7644 -18.7644 -18.7641 -18.6881 -18.6881 -18.6553 -18.6553
   -13.5344 -13.5344 -13.5343 -13.4891 -13.4891 -13.4113 -13.4113 -13.4113
   -13.4113 -13.4021 -13.4021 -13.4020 -13.4020 -13.3543 -13.3543 -13.3276
   -13.3276 -13.3276 -13.3276 -13.2352 -13.2352 -13.2346 -13.2346 -13.1919
   -13.1919 -13.1519 -13.1519 -13.1519 -13.1519 -13.1347 -13.1347 -13.0631
   -13.0631 -13.0628 -13.0628 -13.0360 -13.0356 -13.0354 -13.0354 -13.0354
   -13.0354 -13.0353 -13.0353 -13.0353 -13.0353 -13.0352 -13.0347 -13.0017
   -13.0017 -13.0017 -13.0017 -12.8601 -12.8601 -12.8601 -12.8601 -12.8574
   -12.8574 -12.8574 -12.8574 -12.8472 -12.8469 -12.8469 -12.8469 -12.8469
   -12.8466 -12.7658 -12.7658 -12.7658 -12.7658 -12.6730 -12.6730 -12.6725
   -12.6725 -12.6590 -12.6590 -12.6590 -12.6590 -12.6351 -12.6351 -12.6348
   -12.6348 -12.6124 -12.6124 -12.5890 -12.5890 -12.5831 -12.5831 -12.5428
   -12.5428 -12.5427 -12.5427 -12.4961 -12.4961 -12.4954 -12.4954 -12.3990
   -12.3990 -12.3990 -12.3990 -12.3012 -12.3008 -12.3008 -12.3008 -12.3008
   -12.3004 -12.2753 -12.2753 -12.2745 -12.2745 -12.2479 -12.2476 -12.2475
   -12.2474 -12.2474 -12.2469 -12.2086 -12.2086 -12.2078 -12.2078 -12.1504
   -12.1504 -12.1497 -12.1497 -11.9759 -11.9759 -11.9759 -11.9759 -11.9303
   -11.9303 -11.9303 -11.9303 -11.7608 -11.7608 -11.7103 -11.7103 -11.7101
   -11.7101 -11.7080 -11.7080 -11.7074 -11.7074 -11.6577 -11.6577 -11.6216
   -11.6216 -11.4102 -11.4102 -11.4102 -11.4102 -11.3944 -11.3944 -11.3944
   -11.3944 -11.2500 -11.2500 -11.2500 -11.2500 -11.2060 -11.2057 -11.2057
   -11.2057 -11.2057 -11.2055 -11.1527 -11.1527 -11.1041 -11.1040 -11.1037
   -11.1037 -11.1037 -11.1037 -11.1037 -11.1037 -11.1037 -11.1037 -11.1033
   -11.1033 -11.0911 -11.0911 -11.0877 -11.0877 -11.0877 -11.0877 -11.0346
   -11.0346 -11.0342 -11.0342 -10.7905 -10.7905 -10.7611 -10.7611 -10.7606
   -10.7606 -10.7448 -10.7448 -10.7448 -10.7448 -10.6159 -10.6159 -10.6153
   -10.6153 -10.5210 -10.5209 -10.5207 -10.5207 -10.5205 -10.5202 -10.4348
   -10.4348 -10.4348 -10.4348 -10.4030 -10.4030 -10.3770 -10.3770 -10.3765
   -10.3765 -10.3436 -10.3436 -10.3436 -10.3436 -10.2976 -10.2976 -10.2976
   -10.2976 -10.1645 -10.1645 -10.1645 -10.1645 -10.1380 -10.1380 -10.1380
   -10.1380  -9.9855  -9.9855  -9.9850  -9.9850  -9.9759  -9.9759  -9.9755
    -9.9755  -9.9136  -9.9136  -9.9136  -9.9136  -9.8903  -9.8260  -9.8260
    -9.8162  -9.8162  -9.8143  -9.8143  -9.7890  -9.7890  -9.7671  -9.7671
    -9.7671  -9.7671  -9.7362  -9.7361  -9.7360  -9.7359  -9.7358  -9.7358
    -9.7294  -9.7294  -9.7294  -9.7294  -9.7133  -9.7133  -9.7133  -9.7133
    -9.7046  -9.7046  -9.7046  -9.7046  -9.6050  -9.6050  -9.5876  -9.5876
    -9.5186  -9.5184  -9.5180  -9.5180  -9.5180  -9.5180  -9.5179  -9.5179
    -9.5179  -9.5179  -9.5174  -9.5173  -9.5168  -9.5168  -9.5168  -9.5168
    -9.4999  -9.4999  -9.4999  -9.4999  -9.4877  -9.4876  -9.4876  -9.4876
    -9.4876  -9.4875  -9.4255  -9.4255  -9.4255  -9.4255  -9.4129  -9.4129
    -9.4127  -9.4127  -9.2635  -9.2635  -9.2635  -9.2635  -9.2592  -9.2592
    -9.2589  -9.2589  -9.2147  -9.2147  -9.1902  -9.1902  -9.1901  -9.1901
    -9.1165  -9.1165  -9.1165  -9.1165  -9.1024  -9.1024  -9.1022  -9.1022
    -9.0688  -9.0688  -9.0150  -9.0150  -9.0146  -9.0146  -9.0064  -9.0064
    -8.9945  -8.9945  -8.9859  -8.9859  -8.9858  -8.9858  -8.9246  -8.9246
    -8.9246  -8.9246  -8.9214  -8.9214  -8.9214  -8.9214  -8.8521  -8.8521
    -8.8520  -8.8520  -8.8353  -8.8352  -8.8350  -8.8350  -8.8350  -8.8350
    -8.8349  -8.8349  -8.8349  -8.8349  -8.8349  -8.8346  -8.8249  -8.8249
    -8.8247  -8.8247  -8.8235  -8.8235  -8.8234  -8.8234  -8.7952  -8.7950
    -8.7950  -8.7950  -8.7950  -8.7949  -8.7932  -8.7932  -8.7932  -8.7932
    -8.7812  -8.7811  -8.7811  -8.7245  -8.7245  -8.7242  -8.7242  -8.7128
    -8.7128  -8.7128  -8.7128  -8.7041  -8.7040  -8.7040  -8.7040  -8.7040
    -8.7039  -8.7005  -8.7005  -8.6839  -8.6839  -8.6837  -8.6837  -8.6731
    -8.6731  -8.6730  -8.6730  -8.6090  -8.6090  -8.6089  -8.6089  -8.5078
    -8.5078  -8.5074  -8.5074  -8.4635  -8.4634  -8.4634  -8.4634  -8.4634
    -8.4634  -8.4590  -8.4590  -8.4590  -8.4590  -8.3757  -8.3757  -8.3488
    -8.3488  -8.3488  -8.3488  -8.3273  -8.3271  -8.3271  -8.3271  -8.3271
    -8.3269  -8.3109  -8.3109  -8.2979  -8.2979  -8.2979  -8.2979  -8.2614
    -8.2614  -8.2613  -8.2613  -8.2565  -8.2565  -8.2565  -8.2565  -8.2472
    -8.2472  -8.2472  -8.2472  -8.1536  -8.1536  -8.1536  -8.1536  -8.0855
    -8.0855  -8.0754  -8.0754  -8.0754  -8.0754  -8.0696  -8.0696  -8.0586
    -8.0586  -8.0582  -8.0582  -8.0471  -8.0471  -8.0471  -8.0471  -8.0264
    -8.0264  -8.0260  -8.0260  -7.9800  -7.9800  -7.9800  -7.9800  -7.8689
    -7.8689  -7.8688  -7.8688  -7.8639  -7.8639  -7.8639  -7.8639  -7.8578
    -7.8578  -7.8572  -7.8572  -7.7943  -7.7943  -7.7943  -7.7943  -7.7740
    -7.7740  -7.7151  -7.7151  -7.7149  -7.7149  -7.7076  -7.7076  -7.7076
    -7.7076  -7.5969  -7.5965  -7.5965  -7.5965  -7.5965  -7.5961  -7.5834
    -7.5832  -7.5832  -7.5832  -7.5832  -7.5829  -7.5204  -7.5204  -7.5125
    -7.5125  -7.5121  -7.5121  -7.4533  -7.4533  -7.4533  -7.4533  -7.3355
    -7.3355  -7.3197  -7.3197  -7.3188  -7.3188  -7.2876  -7.2876  -7.2876
    -7.2876  -7.2554  -7.2553  -7.2553  -7.2553  -7.2553  -7.2553  -7.2553
    -7.2553  -7.2553  -7.2553  -7.2552  -7.2551  -7.2344  -7.2344  -7.2340
    -7.2340  -7.2211  -7.2211  -7.2211  -7.2211  -7.1648  -7.1644  -7.1644
    -7.1644  -7.1644  -7.1638  -7.0476  -7.0476  -7.0204  -7.0204  -7.0202
    -7.0202  -6.9540  -6.9540  -6.9540  -6.9540  -6.9381  -6.9381  -6.9381
    -6.9381  -6.9350  -6.9350  -6.9321  -6.9321  -6.9318  -6.9318  -6.8665
    -6.8665  -6.7232  -6.7232  -6.7232  -6.7232  -6.6593  -6.6593  -6.6591
    -6.6591  -6.6486  -6.6486  -6.6486  -6.6486  -6.6486  -6.6485  -6.5860
    -6.5860  -6.5859  -6.5859  -6.5420  -6.5420  -6.5262  -6.5262  -6.5261
    -6.5261  -6.5193  -6.5193  -6.5193  -6.5193  -6.5193  -6.5191  -6.5191
    -6.5191  -6.5191  -6.5191  -6.4792  -6.4792  -6.4792  -6.4792  -6.4202
    -6.4202  -6.4029  -6.4029  -6.4028  -6.4028  -6.3000  -6.3000  -6.2998
    -6.2998  -6.2953  -6.2953  -6.2352  -6.2352  -6.2352  -6.2352  -6.2149
    -6.2149  -6.1747  -6.1747  -6.1747  -6.1747  -6.1228  -6.1228  -6.1155
    -6.1155  -6.1153  -6.1153  -6.0880  -6.0880  -6.0677  -6.0677  -6.0677
    -6.0677  -6.0325  -6.0325  -6.0325  -6.0325  -5.9732  -5.9732  -5.8803
    -5.8803  -5.8226  -5.8226  -5.8226  -5.8226  -5.7587  -5.7585  -5.7585
    -5.7585  -5.7585  -5.7583  -5.7292  -5.7292  -5.7292  -5.7292  -5.7260
    -5.7260  -5.7260  -5.7260  -5.6560  -5.6558  -5.6558  -5.6558  -5.6558
    -5.6558  -5.6557  -5.6557  -5.6557  -5.6557  -5.6557  -5.6555  -5.5781
    -5.5781  -5.5781  -5.5781  -5.5445  -5.5445  -5.5445  -5.4893  -5.4893
    -5.4443  -5.4443  -5.4443  -5.4443  -5.4025  -5.4025  -5.4023  -5.4023
    -5.4013  -5.4013  -5.4013  -5.4013  -5.3309  -5.3309  -5.2412  -5.2412
    -5.2409  -5.2409  -5.1754  -5.1754  -5.1752  -5.1752  -5.1315  -5.1315
    -5.1315  -5.1315  -5.1070  -5.1070  -5.1068  -5.1068  -5.0990  -5.0990
    -5.0937  -5.0937  -4.8667  -4.8667  -4.8667  -4.8667  -4.8324  -4.8323
    -4.8323  -4.8323  -4.8323  -4.8322  -4.7079  -4.7079  -4.6521  -4.6521
    -0.1454  -0.0485  -0.0485  -0.0164  -0.0164   0.0694   0.0694   0.0794
     0.0794   0.0794   0.0795   0.1142   0.1142   0.1545   0.1545   0.1545
     0.1545   0.1545   0.1547   0.1768   0.1796

          k = 0.0000 0.3849 0.0000 (****** PWs)   bands (ev):

   -22.3054 -22.2803 -22.2490 -22.2490 -22.2240 -22.2240 -22.1803 -22.1243
   -22.1242 -22.1056 -22.0808 -22.0808 -22.0561 -22.0561 -22.0499 -22.0499
   -21.9576 -21.9576 -21.9086 -21.8841 -21.8841 -21.8536 -21.8536 -21.8050
   -21.8050 -21.7869 -21.7808 -21.7808 -21.7324 -21.7324 -21.6903 -21.6903
   -21.6845 -21.6845 -21.6127 -21.6127 -21.5707 -21.5707 -21.5001 -21.4469
   -21.4469 -21.4291 -21.4287 -21.4235 -21.4235 -21.4059 -21.4055 -21.3366
   -21.3134 -21.3130 -21.3070 -21.3070 -21.2890 -21.2890 -21.2841 -21.2841
   -21.2446 -21.2442 -21.1286 -21.1286 -21.0635 -21.0631 -21.0330 -21.0330
   -20.9746 -20.9656 -20.9656 -20.9522 -20.9518 -20.9439 -20.9439 -20.9238
   -20.9238 -20.8772 -20.8772 -20.8579 -20.8579 -20.7941 -20.7941 -20.7792
   -20.7742 -20.7742 -20.7296 -20.7296 -20.6914 -20.6910 -20.6268 -20.6268
   -20.5833 -20.5833 -20.5439 -20.5435 -20.5340 -20.5340 -20.5245 -20.5245
   -20.4365 -20.4365 -20.4176 -20.4176 -20.3710 -20.3499 -20.3499 -20.3427
   -20.3427 -20.3238 -20.3238 -20.2875 -20.2875 -20.2866 -20.2866 -20.2206
   -20.2202 -20.1856 -20.1856 -20.1645 -20.1532 -20.1532 -20.1441 -20.1441
   -20.1187 -20.1187 -20.0574 -20.0574 -20.0484 -20.0480 -19.9851 -19.9851
   -19.9679 -19.9679 -19.8777 -19.8777 -19.8645 -19.8645 -19.8636 -19.8636
   -19.8594 -19.8594 -19.8083 -19.8083 -19.7764 -19.7764 -19.7697 -19.7681
   -19.7681 -19.7506 -19.7506 -19.7269 -19.7269 -19.7130 -19.7130 -19.6943
   -19.6939 -19.6664 -19.6664 -19.6070 -19.6070 -19.6033 -19.6033 -19.5941
   -19.5529 -19.5529 -19.5215 -19.5215 -19.5188 -19.5183 -19.4773 -19.4773
   -19.4345 -19.4345 -19.4143 -19.4143 -19.4100 -19.4100 -19.4072 -19.4072
   -19.4051 -19.4051 -19.3473 -19.3473 -19.3416 -19.3416 -19.3273 -19.3202
   -19.3202 -19.3059 -19.3059 -19.2889 -19.2889 -19.2779 -19.2779 -19.2745
   -19.2745 -19.2596 -19.2596 -19.2589 -19.2589 -19.2554 -19.2554 -19.2534
   -19.2365 -19.2365 -19.2302 -19.2301 -19.2163 -19.2163 -19.2157 -19.2157
   -19.1914 -19.1909 -19.1795 -19.1795 -19.1791 -19.1791 -19.1086 -19.1086
   -19.1078 -19.1078 -19.0750 -19.0750 -19.0627 -19.0627 -19.0498 -19.0494
   -19.0170 -19.0170 -18.9926 -18.9926 -18.9895 -18.9895 -18.9674 -18.9674
   -18.9517 -18.9517 -18.9352 -18.9352 -18.9275 -18.9275 -18.8943 -18.8943
   -18.8763 -18.8763 -18.8406 -18.8401 -18.8221 -18.8221 -18.7839 -18.7835
   -18.7223 -18.7223 -18.7132 -18.7132 -18.6967 -18.6967 -18.6700 -18.6700
   -13.5195 -13.5194 -13.4948 -13.4750 -13.4750 -13.4502 -13.4502 -13.4125
   -13.4125 -13.3843 -13.3843 -13.3806 -13.3806 -13.3786 -13.3357 -13.3357
   -13.3212 -13.3212 -13.3175 -13.3175 -13.3026 -13.3025 -13.2436 -13.2436
   -13.2092 -13.2092 -13.1792 -13.1791 -13.1342 -13.1342 -13.1251 -13.1251
   -13.1026 -13.1026 -13.0824 -13.0824 -13.0730 -13.0730 -13.0153 -13.0153
   -13.0083 -13.0083 -12.9972 -12.9972 -12.9706 -12.9706 -12.9438 -12.9415
   -12.9415 -12.9077 -12.9077 -12.8801 -12.8801 -12.8762 -12.8762 -12.8489
   -12.8489 -12.8267 -12.8262 -12.8045 -12.8045 -12.7672 -12.7666 -12.7423
   -12.7423 -12.7289 -12.7289 -12.7086 -12.7085 -12.6789 -12.6789 -12.6735
   -12.6735 -12.6662 -12.6662 -12.6579 -12.6579 -12.6512 -12.6512 -12.6437
   -12.6296 -12.6296 -12.6292 -12.6292 -12.6281 -12.6281 -12.6123 -12.6123
   -12.5974 -12.5974 -12.5794 -12.5794 -12.5507 -12.5502 -12.5257 -12.5257
   -12.5003 -12.5003 -12.4739 -12.4739 -12.4189 -12.4189 -12.4069 -12.4065
   -12.3947 -12.3946 -12.3046 -12.3046 -12.2875 -12.2874 -12.2767 -12.2767
   -12.1351 -12.1351 -12.1132 -12.1132 -12.1127 -12.1127 -12.0770 -12.0767
   -11.9231 -11.9143 -11.9143 -11.9037 -11.9037 -11.8975 -11.8973 -11.8604
   -11.8604 -11.8603 -11.8603 -11.8007 -11.8007 -11.7729 -11.7729 -11.7136
   -11.7136 -11.6622 -11.6622 -11.6115 -11.6115 -11.5944 -11.5944 -11.5840
   -11.5840 -11.5578 -11.5578 -11.5178 -11.5155 -11.5154 -11.5059 -11.5059
   -11.4987 -11.4987 -11.4899 -11.4899 -11.4303 -11.4303 -11.3133 -11.3132
   -11.2940 -11.2940 -11.1993 -11.1993 -11.1870 -11.1866 -11.1624 -11.1624
   -11.1300 -11.1296 -11.0982 -11.0982 -10.9816 -10.9816 -10.9515 -10.9515
   -10.9464 -10.9464 -10.9426 -10.9426 -10.9426 -10.9426 -10.9005 -10.9002
   -10.8999 -10.8999 -10.8869 -10.8869 -10.8310 -10.8310 -10.7285 -10.7283
   -10.7082 -10.7082 -10.6668 -10.6668 -10.6636 -10.6636 -10.6550 -10.6550
   -10.6484 -10.6398 -10.6398 -10.5418 -10.5418 -10.5041 -10.5041 -10.4737
   -10.4737 -10.3913 -10.3913 -10.3563 -10.3563 -10.3458 -10.3458 -10.3310
   -10.3310 -10.3170 -10.3170 -10.3095 -10.3095 -10.2811 -10.2809 -10.2469
   -10.2469 -10.2150 -10.2150 -10.2130 -10.2130 -10.2023 -10.2023 -10.1950
   -10.1079 -10.1079 -10.0838 -10.0838 -10.0551 -10.0551 -10.0150 -10.0149
   -10.0111 -10.0111  -9.9766  -9.9766  -9.9683  -9.9682  -9.9547  -9.9547
    -9.8790  -9.8660  -9.8660  -9.8452  -9.8180  -9.8180  -9.8030  -9.8030
    -9.7952  -9.7952  -9.7763  -9.7763  -9.7740  -9.7740  -9.7693  -9.7693
    -9.7347  -9.7347  -9.7287  -9.7287  -9.7105  -9.6683  -9.6683  -9.6350
    -9.6350  -9.6344  -9.6344  -9.6099  -9.5953  -9.5953  -9.5765  -9.5765
    -9.5662  -9.5662  -9.5431  -9.5431  -9.5348  -9.5348  -9.5260  -9.5260
    -9.5098  -9.5096  -9.4855  -9.4855  -9.4505  -9.4505  -9.4321  -9.4320
    -9.4101  -9.4101  -9.4045  -9.4045  -9.3641  -9.3641  -9.3458  -9.3458
    -9.3439  -9.3224  -9.3224  -9.3151  -9.3150  -9.3108  -9.3108  -9.2956
    -9.2955  -9.2761  -9.2696  -9.2696  -9.2589  -9.2589  -9.2329  -9.2329
    -9.2038  -9.2038  -9.1930  -9.1930  -9.1793  -9.1739  -9.1739  -9.1710
    -9.1710  -9.1518  -9.1518  -9.1355  -9.1355  -9.1351  -9.1351  -9.1312
    -9.1311  -9.1179  -9.1179  -9.1056  -9.1056  -9.0699  -9.0699  -9.0484
    -9.0484  -9.0405  -9.0405  -9.0368  -9.0368  -9.0252  -9.0252  -8.9972
    -8.9972  -8.9940  -8.9940  -8.9738  -8.9738  -8.9699  -8.9699  -8.9511
    -8.9511  -8.9432  -8.9432  -8.9428  -8.9426  -8.9403  -8.9403  -8.9113
    -8.9113  -8.8861  -8.8861  -8.8845  -8.8845  -8.8794  -8.8794  -8.8740
    -8.8739  -8.8616  -8.8616  -8.8343  -8.8340  -8.8209  -8.8046  -8.8046
    -8.7901  -8.7811  -8.7811  -8.7765  -8.7765  -8.7721  -8.7452  -8.7198
    -8.7198  -8.7177  -8.7177  -8.7112  -8.7112  -8.6935  -8.6933  -8.6930
    -8.6930  -8.6859  -8.6859  -8.6618  -8.6616  -8.6597  -8.6597  -8.6592
    -8.6592  -8.6384  -8.6141  -8.6141  -8.5976  -8.5976  -8.5702  -8.5702
    -8.5673  -8.5591  -8.5522  -8.5520  -8.5386  -8.5386  -8.5355  -8.5353
    -8.5271  -8.5271  -8.5027  -8.5027  -8.4957  -8.4957  -8.4877  -8.4877
    -8.4675  -8.4675  -8.4590  -8.4590  -8.4510  -8.4510  -8.4414  -8.4413
    -8.4413  -8.4413  -8.4348  -8.4348  -8.4106  -8.4106  -8.3985  -8.3985
    -8.3520  -8.2908  -8.2905  -8.2878  -8.2878  -8.2834  -8.2834  -8.2690
    -8.2690  -8.2282  -8.2282  -8.2256  -8.1932  -8.1931  -8.1521  -8.1521
    -8.1459  -8.1459  -8.1413  -8.1413  -8.1279  -8.1279  -8.1257  -8.1257
    -8.0851  -8.0851  -8.0712  -8.0596  -8.0596  -8.0545  -8.0545  -8.0520
    -8.0520  -8.0428  -8.0428  -8.0402  -8.0401  -8.0388  -8.0388  -8.0297
    -8.0297  -8.0016  -8.0016  -7.9728  -7.9728  -7.9467  -7.9380  -7.9380
    -7.9328  -7.9180  -7.9180  -7.9107  -7.9107  -7.8623  -7.8620  -7.8222
    -7.8222  -7.8152  -7.8152  -7.8120  -7.8120  -7.8014  -7.7956  -7.7956
    -7.7692  -7.7330  -7.7330  -7.7074  -7.7070  -7.6802  -7.6800  -7.6699
    -7.6699  -7.6225  -7.6225  -7.6078  -7.6078  -7.5955  -7.5955  -7.5896
    -7.5896  -7.5704  -7.5699  -7.5405  -7.5404  -7.5399  -7.5308  -7.5308
    -7.5303  -7.5299  -7.5049  -7.5044  -7.4752  -7.4750  -7.4627  -7.4627
    -7.4469  -7.4469  -7.4169  -7.4158  -7.4158  -7.4103  -7.4103  -7.3629
    -7.3629  -7.3531  -7.3531  -7.3265  -7.3265  -7.2997  -7.2997  -7.2330
    -7.2314  -7.2054  -7.2054  -7.1935  -7.1935  -7.1657  -7.1657  -7.1331
    -7.1331  -7.1150  -7.1150  -7.1130  -7.1130  -7.0991  -7.0991  -7.0273
    -7.0273  -7.0224  -7.0222  -7.0074  -7.0074  -7.0066  -7.0066  -7.0065
    -7.0065  -6.9723  -6.9723  -6.9389  -6.9338  -6.9338  -6.9328  -6.9328
    -6.9243  -6.9243  -6.9102  -6.9102  -6.9035  -6.9035  -6.8747  -6.8747
    -6.8642  -6.8384  -6.8384  -6.8260  -6.7859  -6.7859  -6.7784  -6.7783
    -6.7583  -6.7583  -6.7381  -6.7381  -6.6867  -6.6863  -6.6863  -6.6642
    -6.6642  -6.6194  -6.6194  -6.5349  -6.5349  -6.5336  -6.5139  -6.5139
    -6.5118  -6.5118  -6.4996  -6.4996  -6.4949  -6.4949  -6.4574  -6.4574
    -6.4314  -6.4314  -6.4279  -6.4279  -6.3881  -6.3881  -6.3713  -6.3713
    -6.3682  -6.3663  -6.3553  -6.3553  -6.3516  -6.3516  -6.3410  -6.3410
    -6.3072  -6.3072  -6.2923  -6.2923  -6.2691  -6.2689  -6.2513  -6.2513
    -6.2326  -6.2186  -6.2186  -6.1514  -6.1514  -6.1297  -6.1297  -6.1288
    -6.1288  -6.1187  -6.1078  -6.1030  -6.1030  -6.0486  -6.0486  -6.0409
    -6.0114  -6.0112  -6.0099  -6.0031  -6.0031  -5.9904  -5.9317  -5.9317
    -5.8765  -5.8765  -5.8533  -5.8533  -5.8416  -5.8416  -5.8291  -5.8291
    -5.8287  -5.8287  -5.7551  -5.7551  -5.7452  -5.7452  -5.7081  -5.7081
    -5.7008  -5.6831  -5.6831  -5.6444  -5.6444  -5.6278  -5.6278  -5.6262
    -5.6262  -5.6181  -5.6181  -5.6114  -5.6114  -5.6013  -5.6013  -5.5848
    -5.5600  -5.5600  -5.5485  -5.5485  -5.5315  -5.5315  -5.5293  -5.5293
    -5.5176  -5.5174  -5.4865  -5.4865  -5.4819  -5.4819  -5.3697  -5.3697
    -5.3661  -5.3661  -5.3251  -5.3251  -5.2982  -5.2982  -5.2969  -5.2968
    -5.2364  -5.2364  -5.2005  -5.2005  -5.1946  -5.1946  -5.1584  -5.1584
    -5.1304  -5.1304  -5.1132  -5.1132  -5.1025  -5.1025  -5.0409  -5.0409
    -5.0194  -5.0194  -4.9593  -4.9591  -4.9255  -4.9255  -4.8649  -4.8648
    -4.7638  -4.7638  -4.7503  -4.7503  -4.7220  -4.7220  -4.6771  -4.6771
    -0.1310  -0.0878  -0.0342  -0.0341   0.0086   0.0088   0.0835   0.0895
     0.0895   0.1183   0.1183   0.1312   0.1312   0.1483   0.1483   0.1789
     0.1879   0.1881   0.1904   0.1904   0.1923

          k = 0.3333 0.0000 0.0000 (****** PWs)   bands (ev):

   -22.3075 -22.2887 -22.2323 -22.2323 -22.2135 -22.2135 -22.2135 -22.1574
   -22.1388 -22.1388 -22.0829 -22.0829 -22.0091 -22.0088 -22.0085 -21.9906
   -21.9901 -21.9351 -21.9351 -21.9169 -21.9167 -21.9164 -21.8620 -21.8615
   -21.8435 -21.8435 -21.7167 -21.7162 -21.6982 -21.6445 -21.6445 -21.6268
   -21.6265 -21.6265 -21.6265 -21.6265 -21.6263 -21.5726 -21.5549 -21.5549
   -21.5019 -21.5019 -21.5015 -21.5015 -21.4143 -21.4138 -21.3607 -21.3607
   -21.2925 -21.2921 -21.2909 -21.2738 -21.2738 -21.2226 -21.2226 -21.1552
   -21.1551 -21.1379 -21.1379 -21.1361 -21.0694 -21.0694 -21.0693 -21.0693
   -21.0693 -21.0693 -21.0209 -21.0204 -21.0183 -21.0183 -20.9528 -20.9528
   -20.8843 -20.8843 -20.8725 -20.8721 -20.8021 -20.8021 -20.8020 -20.7395
   -20.7395 -20.6949 -20.6949 -20.6250 -20.6100 -20.6099 -20.5717 -20.5717
   -20.5651 -20.5651 -20.5557 -20.5555 -20.5555 -20.5555 -20.5555 -20.5553
   -20.5016 -20.5015 -20.4912 -20.4912 -20.4436 -20.4436 -20.3899 -20.3895
   -20.3194 -20.3194 -20.2651 -20.2651 -20.2623 -20.2623 -20.2571 -20.2438
   -20.2438 -20.2044 -20.2044 -20.1398 -20.1398 -20.1120 -20.1120 -20.0696
   -20.0696 -20.0696 -20.0518 -20.0514 -20.0217 -20.0217 -19.9730 -19.9730
   -19.9576 -19.9567 -19.9428 -19.9419 -19.8844 -19.8840 -19.8839 -19.8838
   -19.8837 -19.8833 -19.8412 -19.8403 -19.8153 -19.8153 -19.7677 -19.7677
   -19.7580 -19.7580 -19.7300 -19.7291 -19.6981 -19.6746 -19.6746 -19.6633
   -19.6629 -19.6629 -19.6629 -19.6629 -19.6624 -19.5649 -19.5645 -19.5254
   -19.5254 -19.5193 -19.5129 -19.5121 -19.4924 -19.4924 -19.4608 -19.4608
   -19.4392 -19.4392 -19.4320 -19.4312 -19.4260 -19.4260 -19.4260 -19.4259
   -19.4259 -19.4259 -19.4203 -19.4199 -19.3737 -19.3737 -19.3698 -19.3698
   -19.3356 -19.3356 -19.3258 -19.3258 -19.2803 -19.2803 -19.2682 -19.2674
   -19.2413 -19.2413 -19.2386 -19.2386 -19.2262 -19.2262 -19.2238 -19.2112
   -19.1915 -19.1915 -19.1913 -19.1902 -19.1895 -19.1860 -19.1860 -19.1816
   -19.1816 -19.1814 -19.1814 -19.1792 -19.1788 -19.1622 -19.1622 -19.1622
   -19.1266 -19.0897 -19.0893 -19.0573 -19.0570 -19.0570 -19.0570 -19.0570
   -19.0567 -19.0488 -19.0367 -19.0096 -19.0091 -18.9930 -18.9930 -18.9847
   -18.9845 -18.9843 -18.9703 -18.9698 -18.8728 -18.8728 -18.8728 -18.8627
   -18.8627 -18.8225 -18.8225 -18.8225 -18.8170 -18.8014 -18.8014 -18.7579
   -18.7579 -18.7507 -18.7507 -18.7433 -18.7178 -18.6803 -18.6563 -18.6463
   -13.5294 -13.5142 -13.5109 -13.5108 -13.4540 -13.4540 -13.4540 -13.4510
   -13.4510 -13.4411 -13.4411 -13.4090 -13.3247 -13.3247 -13.3088 -13.3088
   -13.2901 -13.2170 -13.2168 -13.2165 -13.2107 -13.2101 -13.1977 -13.1977
   -13.1875 -13.1875 -13.1741 -13.1741 -13.1741 -13.1741 -13.1741 -13.1741
   -13.1583 -13.1579 -13.1437 -13.1431 -13.1212 -13.1212 -13.0822 -13.0822
   -13.0447 -12.9852 -12.9852 -12.9815 -12.9815 -12.9480 -12.9380 -12.9376
   -12.9216 -12.9216 -12.8906 -12.8906 -12.8895 -12.8888 -12.8846 -12.8846
   -12.8435 -12.8435 -12.7959 -12.7959 -12.7915 -12.7914 -12.7914 -12.7914
   -12.7914 -12.7912 -12.7863 -12.7863 -12.7455 -12.7276 -12.7276 -12.7173
   -12.7173 -12.7084 -12.7077 -12.6849 -12.6849 -12.6523 -12.6363 -12.6363
   -12.6352 -12.6297 -12.6297 -12.6297 -12.6289 -12.6289 -12.5771 -12.5609
   -12.5609 -12.5578 -12.5210 -12.5210 -12.5111 -12.4825 -12.4822 -12.3965
   -12.3675 -12.3675 -12.3491 -12.3487 -12.2983 -12.2975 -12.2895 -12.2887
   -12.2564 -12.2562 -12.2560 -12.2559 -12.2557 -12.2555 -12.2336 -12.2328
   -12.1840 -12.1838 -12.1833 -12.1830 -12.1627 -12.1623 -12.1623 -12.1623
   -12.1623 -12.1619 -12.1545 -12.1538 -12.0666 -12.0198 -12.0198 -11.9925
   -11.9919 -11.9289 -11.9289 -11.8569 -11.8080 -11.7654 -11.7217 -11.7217
   -11.6863 -11.6863 -11.6746 -11.6746 -11.6286 -11.5184 -11.5184 -11.5110
   -11.4365 -11.4060 -11.4054 -11.3982 -11.3982 -11.3933 -11.3933 -11.3808
   -11.3808 -11.3636 -11.3636 -11.3636 -11.3403 -11.3403 -11.3402 -11.3129
   -11.3129 -11.2164 -11.2164 -11.1745 -11.1745 -11.1287 -11.1287 -11.0919
   -11.0919 -11.0905 -11.0905 -11.0894 -11.0891 -11.0891 -11.0891 -11.0891
   -11.0889 -11.0878 -11.0878 -11.0857 -11.0709 -11.0709 -10.9522 -10.9503
   -10.9157 -10.9157 -10.8257 -10.8257 -10.8109 -10.8109 -10.7938 -10.7938
   -10.7625 -10.7625 -10.7410 -10.6800 -10.6337 -10.6332 -10.6047 -10.6042
   -10.5690 -10.5690 -10.5615 -10.5613 -10.5613 -10.5612 -10.5612 -10.5610
   -10.4805 -10.4796 -10.4791 -10.4711 -10.4711 -10.4241 -10.4236 -10.3816
   -10.3811 -10.3673 -10.3673 -10.2924 -10.2583 -10.2578 -10.1953 -10.1948
   -10.1582 -10.1582 -10.1582 -10.1269 -10.1267 -10.1265 -10.1110 -10.1110
   -10.0813 -10.0809 -10.0572 -10.0301 -10.0301 -10.0160 -10.0160  -9.9544
    -9.9544  -9.8818  -9.8583  -9.8565  -9.8435  -9.8435  -9.8358  -9.8354
    -9.7970  -9.7970  -9.7970  -9.7970  -9.7970  -9.7970  -9.7806  -9.7806
    -9.7675  -9.7675  -9.7553  -9.7553  -9.7553  -9.7488  -9.7488  -9.7488
    -9.7488  -9.7390  -9.7390  -9.7383  -9.7381  -9.7381  -9.7381  -9.7381
    -9.7379  -9.6797  -9.6796  -9.6792  -9.6719  -9.6719  -9.6546  -9.6546
    -9.6540  -9.6540  -9.5908  -9.5908  -9.5793  -9.5793  -9.5704  -9.5704
    -9.5704  -9.4955  -9.4952  -9.4863  -9.4793  -9.4792  -9.4792  -9.4544
    -9.4543  -9.4508  -9.4508  -9.4379  -9.4379  -9.3921  -9.3918  -9.3797
    -9.3797  -9.3738  -9.3549  -9.3548  -9.3548  -9.3528  -9.3526  -9.3526
    -9.3524  -9.3209  -9.2917  -9.2917  -9.2893  -9.2893  -9.2806  -9.2805
    -9.2559  -9.2559  -9.2453  -9.2453  -9.2282  -9.2282  -9.1847  -9.1843
    -9.1720  -9.1720  -9.1720  -9.1418  -9.0892  -9.0892  -9.0839  -9.0838
    -9.0791  -9.0791  -9.0640  -9.0640  -9.0592  -9.0533  -9.0530  -9.0435
    -9.0435  -9.0393  -9.0390  -8.9908  -8.9908  -8.9863  -8.9863  -8.9620
    -8.9619  -8.9619  -8.9619  -8.9619  -8.9619  -8.8932  -8.8932  -8.8888
    -8.8830  -8.8647  -8.8647  -8.8548  -8.8547  -8.8503  -8.8502  -8.8451
    -8.8449  -8.8447  -8.8446  -8.8445  -8.8442  -8.8347  -8.8346  -8.8155
    -8.8123  -8.8122  -8.8069  -8.8043  -8.8043  -8.8020  -8.8020  -8.8019
    -8.8019  -8.8019  -8.8019  -8.7926  -8.7926  -8.7922  -8.7922  -8.7866
    -8.7866  -8.7825  -8.7825  -8.7545  -8.7545  -8.7524  -8.7523  -8.7262
    -8.7262  -8.6754  -8.6751  -8.6730  -8.6729  -8.6439  -8.6439  -8.6336
    -8.6336  -8.6263  -8.6263  -8.6060  -8.6060  -8.6004  -8.6004  -8.5634
    -8.5632  -8.5625  -8.5624  -8.5623  -8.5431  -8.5431  -8.5342  -8.5342
    -8.5069  -8.5067  -8.5053  -8.4888  -8.4886  -8.4819  -8.4819  -8.4511
    -8.4511  -8.4492  -8.4223  -8.4222  -8.4118  -8.4118  -8.4111  -8.4109
    -8.4109  -8.4109  -8.4109  -8.4107  -8.3876  -8.3876  -8.3842  -8.3842
    -8.3784  -8.3784  -8.3430  -8.3427  -8.3192  -8.3192  -8.3155  -8.3155
    -8.2957  -8.2957  -8.2936  -8.2018  -8.2018  -8.2018  -8.2018  -8.2018
    -8.2018  -8.1822  -8.1821  -8.1821  -8.1821  -8.1821  -8.1819  -8.1346
    -8.1345  -8.1320  -8.1319  -8.1197  -8.1195  -8.1195  -8.1193  -8.1100
    -8.1100  -8.1076  -8.0935  -8.0934  -8.0627  -8.0415  -8.0415  -7.9971
    -7.9971  -7.9478  -7.9478  -7.9334  -7.9334  -7.9334  -7.9333  -7.9333
    -7.9333  -7.9302  -7.9301  -7.8763  -7.8759  -7.8345  -7.8344  -7.8344
    -7.8195  -7.7847  -7.7847  -7.7524  -7.7524  -7.7473  -7.7473  -7.7329
    -7.7325  -7.7190  -7.7190  -7.6919  -7.6919  -7.6871  -7.6871  -7.6847
    -7.6847  -7.6333  -7.6326  -7.6196  -7.6196  -7.5892  -7.5682  -7.5682
    -7.5129  -7.5129  -7.5053  -7.5052  -7.4906  -7.4905  -7.4905  -7.4905
    -7.4905  -7.4904  -7.4682  -7.4678  -7.4617  -7.4617  -7.4530  -7.4526
    -7.4522  -7.4468  -7.4468  -7.4170  -7.4170  -7.4014  -7.4014  -7.3556
    -7.3475  -7.3471  -7.3366  -7.3366  -7.3353  -7.3353  -7.3148  -7.3148
    -7.2583  -7.2581  -7.2309  -7.2299  -7.1809  -7.1799  -7.1619  -7.1619
    -7.1483  -7.1389  -7.1284  -7.1283  -7.1283  -7.1282  -7.1282  -7.1280
    -7.0845  -7.0845  -7.0780  -7.0780  -7.0749  -7.0683  -7.0683  -7.0559
    -7.0559  -7.0282  -7.0279  -6.9993  -6.9993  -6.9111  -6.9111  -6.9064
    -6.9064  -6.8640  -6.8640  -6.8382  -6.8380  -6.8096  -6.8096  -6.8095
    -6.7936  -6.7936  -6.7792  -6.7790  -6.7461  -6.7460  -6.7459  -6.7397
    -6.7397  -6.6938  -6.6938  -6.6717  -6.6717  -6.6483  -6.6483  -6.6417
    -6.6415  -6.6207  -6.6206  -6.6129  -6.5860  -6.5858  -6.5737  -6.5379
    -6.5379  -6.5378  -6.5378  -6.5377  -6.5376  -6.5367  -6.5365  -6.4767
    -6.4765  -6.4351  -6.4351  -6.4070  -6.4070  -6.3936  -6.3936  -6.3936
    -6.3751  -6.3751  -6.3535  -6.3535  -6.3194  -6.3194  -6.3175  -6.3173
    -6.3123  -6.3123  -6.2871  -6.2751  -6.2280  -6.2280  -6.2212  -6.2212
    -6.2212  -6.2212  -6.2212  -6.2211  -6.1760  -6.1760  -6.1759  -6.1368
    -6.1368  -6.0824  -6.0701  -6.0699  -6.0245  -6.0125  -6.0063  -6.0063
    -6.0017  -6.0015  -6.0008  -5.9860  -5.9696  -5.9696  -5.9188  -5.9188
    -5.8819  -5.8817  -5.8739  -5.8739  -5.8546  -5.8546  -5.8546  -5.8546
    -5.8546  -5.8545  -5.8534  -5.8532  -5.7795  -5.7795  -5.7785  -5.7785
    -5.7226  -5.7226  -5.7008  -5.7008  -5.6349  -5.6347  -5.6277  -5.6277
    -5.5790  -5.5790  -5.5657  -5.5657  -5.5541  -5.5541  -5.5383  -5.5199
    -5.5179  -5.5146  -5.5144  -5.5054  -5.5054  -5.4936  -5.4936  -5.4922
    -5.4922  -5.4839  -5.4837  -5.4815  -5.4815  -5.4472  -5.4472  -5.4472
    -5.3941  -5.3439  -5.3436  -5.3043  -5.3042  -5.3042  -5.3042  -5.3042
    -5.3041  -5.2961  -5.2586  -5.2263  -5.2261  -5.2049  -5.2049  -5.1791
    -5.1790  -5.1788  -5.1580  -5.1577  -5.0144  -5.0144  -5.0053  -4.9930
    -4.9930  -4.9324  -4.9324  -4.9324  -4.9169  -4.8927  -4.8927  -4.8240
    -4.8240  -4.8107  -4.8107  -4.8009  -4.7562  -4.6940  -4.6538  -4.6367
     0.0596   0.0721   0.0934   0.1239   0.1573   0.1573   0.1811   0.1884
     0.1884   0.1894   0.1894   0.1914   0.2010   0.2401   0.2633   0.2633
     0.3061   0.3061   0.3061   0.3715   0.3721

          k = 0.3333 0.3849 0.0000 (****** PWs)   bands (ev):

   -22.2992 -22.2803 -22.2740 -22.2552 -22.2052 -22.1803 -22.1740 -22.1553
   -22.1491 -22.1243 -22.0994 -22.0808 -22.0808 -22.0252 -22.0067 -22.0006
   -21.9760 -21.9514 -21.9085 -21.9025 -21.8841 -21.8841 -21.8780 -21.8110
   -21.8051 -21.7869 -21.7809 -21.7627 -21.7565 -21.7145 -21.6903 -21.6903
   -21.6663 -21.6363 -21.6125 -21.5711 -21.5647 -21.5411 -21.5234 -21.5001
   -21.4942 -21.4937 -21.4764 -21.4471 -21.4057 -21.4057 -21.3772 -21.3530
   -21.3307 -21.3132 -21.3132 -21.2833 -21.2605 -21.2434 -21.2141 -21.1981
   -21.1929 -21.1915 -21.1698 -21.1286 -21.1286 -21.1063 -21.1024 -21.0795
   -21.0550 -21.0178 -20.9710 -20.9689 -20.9520 -20.9520 -20.9277 -20.9251
   -20.8847 -20.8347 -20.8163 -20.8135 -20.7951 -20.7792 -20.7742 -20.7742
   -20.7737 -20.7571 -20.7036 -20.6912 -20.6912 -20.6734 -20.6627 -20.6424
   -20.6298 -20.6233 -20.6183 -20.5983 -20.5618 -20.5190 -20.5145 -20.4690
   -20.4604 -20.4365 -20.4365 -20.4265 -20.4181 -20.3710 -20.3657 -20.3500
   -20.3316 -20.3075 -20.2875 -20.2875 -20.2556 -20.2512 -20.2413 -20.2336
   -20.2146 -20.1640 -20.1594 -20.1546 -20.1441 -20.1441 -20.1210 -20.1129
   -20.1044 -20.0835 -20.0642 -20.0482 -20.0482 -20.0388 -20.0174 -20.0008
   -19.9851 -19.9851 -19.9809 -19.9389 -19.9378 -19.9229 -19.9018 -19.8823
   -19.8813 -19.8530 -19.8253 -19.8207 -19.7895 -19.7649 -19.7506 -19.7506
   -19.7451 -19.7227 -19.6942 -19.6941 -19.6941 -19.6823 -19.6528 -19.6363
   -19.6297 -19.6255 -19.6076 -19.6033 -19.6033 -19.5970 -19.5941 -19.5895
   -19.5757 -19.5464 -19.5215 -19.5215 -19.5163 -19.5107 -19.5072 -19.5005
   -19.4995 -19.4831 -19.4818 -19.4748 -19.4725 -19.4481 -19.4291 -19.4242
   -19.3896 -19.3803 -19.3763 -19.3577 -19.3417 -19.3416 -19.3415 -19.3273
   -19.3238 -19.3230 -19.3202 -19.3201 -19.3101 -19.2949 -19.2665 -19.2664
   -19.2596 -19.2595 -19.2491 -19.2430 -19.2365 -19.2365 -19.2228 -19.2201
   -19.2035 -19.1969 -19.1906 -19.1887 -19.1875 -19.1871 -19.1845 -19.1838
   -19.1829 -19.1804 -19.1798 -19.1512 -19.1335 -19.1328 -19.1295 -19.1219
   -19.1181 -19.1179 -19.1086 -19.1086 -19.0750 -19.0750 -19.0644 -19.0604
   -19.0522 -19.0496 -19.0496 -19.0475 -19.0427 -19.0076 -18.9844 -18.9572
   -18.9411 -18.9349 -18.9256 -18.9082 -18.9025 -18.8975 -18.8943 -18.8943
   -18.8460 -18.8403 -18.8403 -18.8375 -18.8269 -18.8211 -18.7884 -18.7692
   -18.7498 -18.7449 -18.7357 -18.6988 -18.6967 -18.6967 -18.6670 -18.6590
   -13.5206 -13.5005 -13.4899 -13.4793 -13.4750 -13.4749 -13.4715 -13.4156
   -13.4037 -13.3996 -13.3786 -13.3738 -13.3734 -13.3713 -13.3595 -13.3175
   -13.3175 -13.3026 -13.3025 -13.2889 -13.2812 -13.2698 -13.2603 -13.2545
   -13.2520 -13.2135 -13.2002 -13.1893 -13.1827 -13.1536 -13.1497 -13.1266
   -13.0887 -13.0824 -13.0824 -13.0822 -13.0707 -13.0481 -13.0368 -13.0153
   -13.0153 -12.9988 -12.9953 -12.9438 -12.9398 -12.9395 -12.9341 -12.9290
   -12.9277 -12.9223 -12.9133 -12.9023 -12.8801 -12.8801 -12.8645 -12.8615
   -12.8471 -12.8454 -12.8426 -12.7925 -12.7695 -12.7669 -12.7669 -12.7632
   -12.7592 -12.7583 -12.7329 -12.7222 -12.7174 -12.7086 -12.7085 -12.6967
   -12.6958 -12.6742 -12.6687 -12.6536 -12.6512 -12.6512 -12.6511 -12.6454
   -12.6402 -12.6296 -12.6296 -12.6138 -12.6102 -12.5991 -12.5887 -12.5869
   -12.5715 -12.5594 -12.5572 -12.5504 -12.5504 -12.5416 -12.5401 -12.5257
   -12.5257 -12.4892 -12.4608 -12.4523 -12.4483 -12.4362 -12.4008 -12.3947
   -12.3946 -12.3873 -12.3831 -12.3710 -12.3403 -12.2877 -12.2225 -12.2155
   -12.2031 -12.1923 -12.1068 -12.0931 -12.0823 -12.0576 -12.0195 -12.0072
   -11.9677 -11.9209 -11.9143 -11.9142 -11.8974 -11.8974 -11.8902 -11.8750
   -11.8604 -11.8604 -11.8496 -11.8472 -11.8236 -11.7879 -11.7625 -11.7487
   -11.7449 -11.7012 -11.6319 -11.6177 -11.5944 -11.5944 -11.5865 -11.5837
   -11.5367 -11.5179 -11.5164 -11.5155 -11.5154 -11.5122 -11.4987 -11.4986
   -11.4956 -11.4955 -11.4924 -11.4506 -11.4117 -11.4042 -11.3378 -11.3058
   -11.2990 -11.2913 -11.2896 -11.2829 -11.2378 -11.1927 -11.1921 -11.1388
   -11.1298 -11.1298 -11.1263 -11.0960 -11.0588 -11.0539 -11.0505 -10.9854
   -10.9813 -10.9349 -10.9003 -10.9003 -10.8887 -10.8728 -10.8714 -10.8538
   -10.8446 -10.8310 -10.8310 -10.8155 -10.7732 -10.7600 -10.7557 -10.7009
   -10.6916 -10.6797 -10.6669 -10.6668 -10.6636 -10.6636 -10.6507 -10.6489
   -10.6484 -10.6323 -10.6274 -10.5900 -10.5577 -10.5575 -10.5411 -10.5377
   -10.5209 -10.4908 -10.4677 -10.4001 -10.3830 -10.3516 -10.3459 -10.3458
   -10.3369 -10.3299 -10.3095 -10.3095 -10.3095 -10.2617 -10.2593 -10.2477
   -10.2315 -10.2023 -10.2023 -10.1984 -10.1967 -10.1799 -10.1728 -10.1463
   -10.1263 -10.1160 -10.0838 -10.0838 -10.0523 -10.0491 -10.0450 -10.0150
   -10.0149  -9.9902  -9.9749  -9.9548  -9.9547  -9.9348  -9.9126  -9.9001
    -9.8814  -9.8706  -9.8694  -9.8575  -9.8572  -9.8558  -9.8482  -9.8452
    -9.8368  -9.8362  -9.8180  -9.8115  -9.8061  -9.7566  -9.7441  -9.7105
    -9.7021  -9.6991  -9.6969  -9.6769  -9.6685  -9.6595  -9.6441  -9.6361
    -9.6350  -9.6288  -9.6062  -9.6016  -9.5964  -9.5953  -9.5953  -9.5765
    -9.5765  -9.5533  -9.5515  -9.5443  -9.5330  -9.5261  -9.5260  -9.5014
    -9.4765  -9.4682  -9.4569  -9.4436  -9.4350  -9.4325  -9.4321  -9.4321
    -9.4308  -9.4018  -9.3905  -9.3714  -9.3655  -9.3646  -9.3644  -9.3641
    -9.3641  -9.3438  -9.3362  -9.3356  -9.3170  -9.3148  -9.3120  -9.3108
    -9.3108  -9.3026  -9.2955  -9.2955  -9.2905  -9.2861  -9.2808  -9.2542
    -9.2240  -9.2139  -9.2120  -9.2039  -9.1986  -9.1925  -9.1812  -9.1793
    -9.1711  -9.1708  -9.1630  -9.1627  -9.1465  -9.1415  -9.1405  -9.1382
    -9.1355  -9.1355  -9.1351  -9.1351  -9.0985  -9.0920  -9.0812  -9.0604
    -9.0484  -9.0484  -9.0368  -9.0368  -9.0291  -9.0252  -9.0252  -9.0159
    -9.0151  -9.0040  -8.9878  -8.9819  -8.9752  -8.9495  -8.9477  -8.9436
    -8.9429  -8.9427  -8.9427  -8.9385  -8.9235  -8.9204  -8.8953  -8.8866
    -8.8781  -8.8740  -8.8739  -8.8540  -8.8477  -8.8469  -8.8460  -8.8382
    -8.8273  -8.8219  -8.8209  -8.8112  -8.8081  -8.7979  -8.7901  -8.7894
    -8.7863  -8.7850  -8.7821  -8.7815  -8.7735  -8.7709  -8.7579  -8.7507
    -8.7452  -8.7394  -8.7345  -8.7291  -8.7180  -8.7089  -8.6972  -8.6819
    -8.6773  -8.6699  -8.6639  -8.6617  -8.6617  -8.6597  -8.6597  -8.6463
    -8.6438  -8.6383  -8.6290  -8.6227  -8.6042  -8.5977  -8.5976  -8.5957
    -8.5914  -8.5899  -8.5869  -8.5846  -8.5778  -8.5593  -8.5455  -8.5361
    -8.5354  -8.5354  -8.5168  -8.4998  -8.4949  -8.4935  -8.4879  -8.4675
    -8.4675  -8.4670  -8.4637  -8.4510  -8.4510  -8.4403  -8.4078  -8.4004
    -8.3912  -8.3782  -8.3770  -8.3713  -8.3709  -8.3694  -8.3394  -8.3319
    -8.3280  -8.3236  -8.3142  -8.3050  -8.2907  -8.2906  -8.2865  -8.2834
    -8.2834  -8.2801  -8.2529  -8.2527  -8.2504  -8.2469  -8.2449  -8.2256
    -8.2211  -8.2156  -8.1914  -8.1849  -8.1824  -8.1818  -8.1684  -8.1460
    -8.1459  -8.1309  -8.1175  -8.0671  -8.0634  -8.0428  -8.0428  -8.0402
    -8.0402  -8.0349  -8.0278  -8.0073  -8.0030  -7.9928  -7.9913  -7.9575
    -7.9569  -7.9478  -7.9467  -7.9465  -7.9419  -7.9392  -7.9328  -7.8898
    -7.8847  -7.8790  -7.8688  -7.8622  -7.8622  -7.8528  -7.8497  -7.8247
    -7.8170  -7.8030  -7.8014  -7.7956  -7.7956  -7.7938  -7.7928  -7.7836
    -7.7811  -7.7709  -7.7628  -7.7401  -7.7019  -7.6981  -7.6922  -7.6907
    -7.6801  -7.6801  -7.6781  -7.6546  -7.6427  -7.6410  -7.6126  -7.6033
    -7.5955  -7.5955  -7.5943  -7.5869  -7.5799  -7.5538  -7.5518  -7.5402
    -7.5402  -7.5047  -7.5047  -7.4998  -7.4903  -7.4514  -7.4405  -7.4393
    -7.4353  -7.3768  -7.3692  -7.3580  -7.3560  -7.3462  -7.3278  -7.3265
    -7.3265  -7.3265  -7.3186  -7.3174  -7.3102  -7.2993  -7.2902  -7.2546
    -7.2453  -7.2329  -7.2314  -7.2271  -7.2241  -7.2021  -7.1857  -7.1793
    -7.1614  -7.1578  -7.1420  -7.1331  -7.1331  -7.1238  -7.1150  -7.1150
    -7.1141  -7.0728  -7.0664  -7.0504  -7.0412  -7.0350  -7.0103  -6.9756
    -6.9413  -6.9406  -6.9343  -6.9317  -6.9299  -6.9103  -6.9103  -6.9035
    -6.9035  -6.8839  -6.8814  -6.8676  -6.8642  -6.8622  -6.8573  -6.8449
    -6.8252  -6.8017  -6.7784  -6.7784  -6.7622  -6.7584  -6.7583  -6.7532
    -6.7472  -6.7350  -6.7296  -6.7053  -6.7047  -6.6863  -6.6862  -6.6767
    -6.6629  -6.6496  -6.6221  -6.6199  -6.6186  -6.5990  -6.5980  -6.5783
    -6.5748  -6.5616  -6.5552  -6.5402  -6.5339  -6.5337  -6.5172  -6.4982
    -6.4569  -6.4448  -6.4302  -6.4280  -6.4280  -6.4078  -6.3825  -6.3614
    -6.3410  -6.3410  -6.3370  -6.3348  -6.2991  -6.2976  -6.2896  -6.2690
    -6.2690  -6.2604  -6.2509  -6.2477  -6.2326  -6.2241  -6.2010  -6.1889
    -6.1804  -6.1658  -6.1554  -6.1448  -6.1427  -6.1296  -6.1296  -6.1262
    -6.1187  -6.1078  -6.1012  -6.0917  -6.0814  -6.0542  -6.0471  -6.0409
    -6.0373  -6.0077  -6.0032  -6.0031  -6.0031  -5.9932  -5.9825  -5.9825
    -5.9735  -5.9546  -5.9455  -5.9376  -5.9306  -5.8984  -5.8777  -5.8545
    -5.8040  -5.7970  -5.7772  -5.7525  -5.7452  -5.7452  -5.7266  -5.7081
    -5.7081  -5.7027  -5.7008  -5.6945  -5.6756  -5.6511  -5.6323  -5.6055
    -5.6013  -5.6013  -5.5876  -5.5786  -5.5600  -5.5600  -5.5469  -5.5331
    -5.5163  -5.5120  -5.5089  -5.5086  -5.5016  -5.4994  -5.4976  -5.4899
    -5.4869  -5.4834  -5.4810  -5.4334  -5.4117  -5.4075  -5.4042  -5.4040
    -5.4030  -5.4017  -5.3697  -5.3697  -5.3251  -5.3251  -5.3123  -5.2993
    -5.2970  -5.2968  -5.2968  -5.2786  -5.2683  -5.2165  -5.1942  -5.1439
    -5.1213  -5.1029  -5.0999  -5.0659  -5.0520  -5.0502  -5.0409  -5.0409
    -4.9631  -4.9592  -4.9592  -4.9511  -4.9390  -4.9258  -4.8752  -4.8419
    -4.8112  -4.8035  -4.7866  -4.7248  -4.7220  -4.7220  -4.6718  -4.6583
     0.0744   0.0815   0.1100   0.1183   0.1183   0.1533   0.1884   0.1904
     0.1911   0.1943   0.2107   0.2180   0.2233   0.2242   0.2388   0.2410
     0.2410   0.2850   0.2850   0.3005   0.3248

     highest occupied, lowest unoccupied level (ev):    -4.6367   -0.1454

!    total energy              =  -10205.29221241 Ry
     total all-electron energy =    -40807.057457 Ry
     estimated scf accuracy    <       0.00000022 Ry

     The total energy is the sum of the following terms:
     one-electron contribution =  -89744.35765059 Ry
     hartree contribution      =   45282.87582550 Ry
     xc contribution           =   -2258.29499248 Ry
     ewald contribution        =   39888.61042068 Ry
     one-center paw contrib.   =   -3374.12581551 Ry

     convergence has been achieved in  14 iterations

     Writing all to output data dir ./hBN.save/

     init_run     :    828.14s CPU    836.40s WALL (       1 calls)
     electrons    :  23517.40s CPU  23643.90s WALL (       1 calls)

     Called by init_run:
     wfcinit      :    806.12s CPU    813.30s WALL (       1 calls)
     potinit      :      2.07s CPU      2.17s WALL (       1 calls)
     hinit0       :      3.43s CPU      3.50s WALL (       1 calls)

     Called by electrons:
     c_bands      :  21249.60s CPU  21350.14s WALL (      14 calls)
     sum_band     :   2232.27s CPU   2247.93s WALL (      14 calls)
     v_of_rho     :      7.26s CPU      7.41s WALL (      15 calls)
     newd         :     25.34s CPU     34.68s WALL (      15 calls)
     PAW_pot      :      2.13s CPU      2.13s WALL (      15 calls)
     mix_rho      :      2.40s CPU      2.47s WALL (      14 calls)

     Called by c_bands:
     init_us_2    :    115.09s CPU    116.24s WALL (     116 calls)
     init_us_2:cp :    115.09s CPU    116.24s WALL (     116 calls)
     cegterg      :  21125.09s CPU  21221.47s WALL (      59 calls)

     Called by *egterg:
     cdiaghg      :    133.74s CPU    138.24s WALL (     358 calls)
     h_psi        :  11111.72s CPU  11159.63s WALL (     362 calls)
     s_psi        :   2980.70s CPU   2985.83s WALL (     362 calls)
     g_psi        :     17.17s CPU     17.22s WALL (     299 calls)

     Called by h_psi:
     h_psi:calbec :   3210.16s CPU   3213.78s WALL (     362 calls)
     vloc_psi     :   4868.65s CPU   4884.20s WALL (     362 calls)
     add_vuspsi   :   2999.86s CPU   3011.65s WALL (     362 calls)

     General routines
     calbec       :   4228.63s CPU   4233.29s WALL (     418 calls)
     fft          :      4.99s CPU      5.09s WALL (     165 calls)
     ffts         :      1.35s CPU      1.36s WALL (      14 calls)
     fftw         :   4906.82s CPU   4921.55s WALL (  404582 calls)

     Parallel routines

     PWSCF        :      6h47m CPU      6h50m WALL


   This run was terminated on:   3:51:55  26Oct2022            

=------------------------------------------------------------------------------=
   JOB DONE.
=------------------------------------------------------------------------------=
