
     Program PWSCF v.7.1 starts on 20Oct2022 at 23: 9:11 
        Git branch: HEAD
        Last git commit: 564a7b486665e8dd0223d6e514b84195d1a96c10
        Last git commit date: Tue Jun 14 16:16:48 2022 +0000
        Last git commit subject: Merge branch 'update_version_number' into 'develop

     This program is part of the open-source Quantum ESPRESSO suite
     for quantum simulation of materials; please cite
         "P. Giannozzi et al., J. Phys.:Condens. Matter 21 395502 (2009);
         "P. Giannozzi et al., J. Phys.:Condens. Matter 29 465901 (2017);
         "P. Giannozzi et al., J. Chem. Phys. 152 154105 (2020);
          URL http://www.quantum-espresso.org", 
     in publications or presentations arising from this work. More details at
     http://www.quantum-espresso.org/quote

     Parallel version (MPI & OpenMP), running on     128 processor cores
     Number of MPI processes:               128
     Threads/MPI process:                     1

     MPI processes distributed on     1 nodes
     961621 MiB available memory on the printing compute node when the environment starts

     Waiting for input...
     Reading input from standard input

     Current dimensions of program PWSCF are:
     Max number of different atomic species (ntypx) = 10
     Max number of k-points (npk) =  40000
     Max angular momentum in pseudopotentials (lmaxx) =  4
     file N.pbe-n-kjpaw_psl.1.0.0.UPF: wavefunction(s)  2S renormalized
     file O.pbe-n-kjpaw_psl.1.0.0.UPF: wavefunction(s)  2S 2P renormalized
     file H.pbe-kjpaw_psl.1.0.0.UPF: wavefunction(s)  1S renormalized
     Found identity + (  0.0000  0.2500  0.0000) symmetry
     This is a supercell, fractional translations are disabled
     Message from routine setup:
     using ibrav=0 with symmetry is DISCOURAGED, use correct ibrav instead

     R & G space division:  proc/nbgrp/npool/nimage =     128
     Subspace diagonalization in iterative solution of the eigenvalue problem:
     one sub-group per band group will be used
     scalapack distributed-memory algorithm (size of sub-group:  5*  5 procs)


     Parallelization info
     --------------------
     sticks:   dense  smooth     PW     G-vecs:    dense   smooth      PW
     Min         158     158     40                27406    27406    3542
     Max         159     159     41                27421    27421    3559
     Sum       20337   20337   5197              3509247  3509247  454371

     Using Slab Decomposition



     bravais-lattice index     =            0
     lattice parameter (alat)  =      37.8632  a.u.
     unit-cell volume          =   70385.9896 (a.u.)^3
     number of atoms/cell      =          176
     number of atomic types    =            4
     number of electrons       =       640.00
     number of Kohn-Sham states=          528
     kinetic-energy cutoff     =      51.4490  Ry
     charge density cutoff     =     205.7961  Ry
     scf convergence threshold =      1.0E-06
     mixing beta               =       0.7000
     number of iterations used =            8  plain     mixing
     Exchange-correlation= SLA  PW   PBX  PBC
                           (   1   4   3   4   0   0   0)

     celldm(1)=  37.863233  celldm(2)=   0.000000  celldm(3)=   0.000000
     celldm(4)=   0.000000  celldm(5)=   0.000000  celldm(6)=   0.000000

     crystal axes: (cart. coord. in units of alat)
               a(1) = (   1.000000   0.000000   0.000000 )  
               a(2) = (   0.000000   0.866026   0.000000 )  
               a(3) = (   0.000000   0.000000   1.497278 )  

     reciprocal axes: (cart. coord. in units 2 pi/alat)
               b(1) = (  1.000000  0.000000  0.000000 )  
               b(2) = (  0.000000  1.154700  0.000000 )  
               b(3) = (  0.000000  0.000000  0.667879 )  


     PseudoPot. # 1 for B  read from file:
     ./B.pbe-n-kjpaw_psl.1.0.0.UPF
     MD5 check sum: 8c825a5969375aca5c2c6ad5945b3059
     Pseudo is Projector augmented-wave + core cor, Zval =  3.0
     Generated using &quot;atomic&quot; code by A. Dal Corso  v.6.3
     Shape of augmentation charge: PSQ
     Using radial grid of 1059 points,  4 beta functions with: 
                l(1) =   0
                l(2) =   0
                l(3) =   1
                l(4) =   1
     Q(r) pseudized with 0 coefficients 


     PseudoPot. # 2 for N  read from file:
     ./N.pbe-n-kjpaw_psl.1.0.0.UPF
     MD5 check sum: 14c48229446f9f2d411169a3abcbc3fa
     Pseudo is Projector augmented-wave + core cor, Zval =  5.0
     Generated using &quot;atomic&quot; code by A. Dal Corso  v.6.3
     Shape of augmentation charge: PSQ
     Using radial grid of 1085 points,  4 beta functions with: 
                l(1) =   0
                l(2) =   0
                l(3) =   1
                l(4) =   1
     Q(r) pseudized with 0 coefficients 


     PseudoPot. # 3 for O  read from file:
     ./O.pbe-n-kjpaw_psl.1.0.0.UPF
     MD5 check sum: e99d9cef9b487d1ca56f5b95ecd0fd7a
     Pseudo is Projector augmented-wave + core cor, Zval =  6.0
     Generated using &quot;atomic&quot; code by A. Dal Corso  v.6.3
     Shape of augmentation charge: PSQ
     Using radial grid of 1095 points,  4 beta functions with: 
                l(1) =   0
                l(2) =   0
                l(3) =   1
                l(4) =   1
     Q(r) pseudized with 0 coefficients 


     PseudoPot. # 4 for H  read from file:
     ./H.pbe-kjpaw_psl.1.0.0.UPF
     MD5 check sum: d81a744832360e4a8af0b0b5b123bc2a
     Pseudo is Projector augmented-wave, Zval =  1.0
     Generated using &quot;atomic&quot; code by A. Dal Corso  v.6.3MaX
     Shape of augmentation charge: PSQ
     Using radial grid of  929 points,  2 beta functions with: 
                l(1) =   0
                l(2) =   0
     Q(r) pseudized with 0 coefficients 


     atomic species   valence    mass     pseudopotential
        B              3.00    10.81100     B ( 1.00)
        N              5.00    14.00670     N ( 1.00)
        O              6.00    15.99900     O ( 1.00)
        H              1.00     1.00784     H ( 1.00)

      2 Sym. Ops. (no inversion) found



   Cartesian axes

     site n.     atom                  positions (alat units)
         1           B   tau(   1) = (   0.9375000   0.0360847   0.2994556  )
         2           B   tau(   2) = (   0.9375000   0.2525911   0.2994556  )
         3           B   tau(   3) = (   0.9375000   0.4690975   0.2994556  )
         4           B   tau(   4) = (   0.9375000   0.6856039   0.2994556  )
         5           B   tau(   5) = (   0.1875000   0.0360847   0.2994556  )
         6           B   tau(   6) = (   0.1875000   0.2525911   0.2994556  )
         7           B   tau(   7) = (   0.1875000   0.4690975   0.2994556  )
         8           B   tau(   8) = (   0.1875000   0.6856039   0.2994556  )
         9           B   tau(   9) = (   0.4375000   0.0360847   0.2994556  )
        10           B   tau(  10) = (   0.4375000   0.2525911   0.2994556  )
        11           B   tau(  11) = (   0.4375000   0.4690975   0.2994556  )
        12           B   tau(  12) = (   0.4375000   0.6856039   0.2994556  )
        13           B   tau(  13) = (   0.6875000   0.0360847   0.2994556  )
        14           B   tau(  14) = (   0.6875000   0.2525911   0.2994556  )
        15           B   tau(  15) = (   0.6875000   0.4690975   0.2994556  )
        16           B   tau(  16) = (   0.6875000   0.6856039   0.2994556  )
        17           B   tau(  17) = (   0.0625000   0.0360847   0.2994556  )
        18           B   tau(  18) = (   0.0625000   0.2525911   0.2994556  )
        19           B   tau(  19) = (   0.0625000   0.4690975   0.2994556  )
        20           B   tau(  20) = (   0.0625000   0.6856039   0.2994556  )
        21           B   tau(  21) = (   0.3125000   0.0360847   0.2994556  )
        22           B   tau(  22) = (   0.3125000   0.2525911   0.2994556  )
        23           B   tau(  23) = (   0.3125000   0.4690975   0.2994556  )
        24           B   tau(  24) = (   0.3125000   0.6856039   0.2994556  )
        25           B   tau(  25) = (   0.5625000   0.0360847   0.2994556  )
        26           B   tau(  26) = (   0.5625000   0.2525911   0.2994556  )
        27           B   tau(  27) = (   0.5625000   0.4690975   0.2994556  )
        28           B   tau(  28) = (   0.5625000   0.6856039   0.2994556  )
        29           B   tau(  29) = (   0.8125000   0.0360847   0.2994556  )
        30           B   tau(  30) = (   0.8125000   0.2525911   0.2994556  )
        31           B   tau(  31) = (   0.8125000   0.4690975   0.2994556  )
        32           B   tau(  32) = (   0.8125000   0.6856039   0.2994556  )
        33           B   tau(  33) = (   0.0000000   0.7938571   0.2994556  )
        34           B   tau(  34) = (   0.0000000   0.1443379   0.2994556  )
        35           B   tau(  35) = (   0.0000000   0.3608443   0.2994556  )
        36           B   tau(  36) = (   0.0000000   0.5773507   0.2994556  )
        37           B   tau(  37) = (   0.2500000   0.7938571   0.2994556  )
        38           B   tau(  38) = (   0.2500000   0.1443379   0.2994556  )
        39           B   tau(  39) = (   0.2500000   0.3608443   0.2994556  )
        40           B   tau(  40) = (   0.2500000   0.5773507   0.2994556  )
        41           B   tau(  41) = (   0.5000000   0.7938571   0.2994556  )
        42           B   tau(  42) = (   0.5000000   0.1443379   0.2994556  )
        43           B   tau(  43) = (   0.5000000   0.3608443   0.2994556  )
        44           B   tau(  44) = (   0.5000000   0.5773507   0.2994556  )
        45           B   tau(  45) = (   0.7500000   0.7938571   0.2994556  )
        46           B   tau(  46) = (   0.7500000   0.1443379   0.2994556  )
        47           B   tau(  47) = (   0.7500000   0.3608443   0.2994556  )
        48           B   tau(  48) = (   0.7500000   0.5773507   0.2994556  )
        49           B   tau(  49) = (   0.1250000   0.7938571   0.2994556  )
        50           B   tau(  50) = (   0.1250000   0.1443379   0.2994556  )
        51           B   tau(  51) = (   0.1250000   0.3608443   0.2994556  )
        52           B   tau(  52) = (   0.1250000   0.5773507   0.2994556  )
        53           B   tau(  53) = (   0.3750000   0.7938571   0.2994556  )
        54           B   tau(  54) = (   0.3750000   0.1443379   0.2994556  )
        55           B   tau(  55) = (   0.3750000   0.3608443   0.2994556  )
        56           B   tau(  56) = (   0.3750000   0.5773507   0.2994556  )
        57           B   tau(  57) = (   0.6250000   0.7938571   0.2994556  )
        58           B   tau(  58) = (   0.6250000   0.1443379   0.2994556  )
        59           B   tau(  59) = (   0.6250000   0.3608443   0.2994556  )
        60           B   tau(  60) = (   0.6250000   0.5773507   0.2994556  )
        61           B   tau(  61) = (   0.8750000   0.7938571   0.2994556  )
        62           B   tau(  62) = (   0.8750000   0.1443379   0.2994556  )
        63           B   tau(  63) = (   0.8750000   0.3608443   0.2994556  )
        64           B   tau(  64) = (   0.8750000   0.5773507   0.2994556  )
        65           N   tau(  65) = (   0.9375000   0.8299409   0.2994556  )
        66           N   tau(  66) = (   0.9375000   0.1804217   0.2994556  )
        67           N   tau(  67) = (   0.9375000   0.3969281   0.2994556  )
        68           N   tau(  68) = (   0.9375000   0.6134345   0.2994556  )
        69           N   tau(  69) = (   0.1875000   0.8299409   0.2994556  )
        70           N   tau(  70) = (   0.1875000   0.1804217   0.2994556  )
        71           N   tau(  71) = (   0.1875000   0.3969281   0.2994556  )
        72           N   tau(  72) = (   0.1875000   0.6134345   0.2994556  )
        73           N   tau(  73) = (   0.4375000   0.8299409   0.2994556  )
        74           N   tau(  74) = (   0.4375000   0.1804217   0.2994556  )
        75           N   tau(  75) = (   0.4375000   0.3969281   0.2994556  )
        76           N   tau(  76) = (   0.4375000   0.6134345   0.2994556  )
        77           N   tau(  77) = (   0.6875000   0.8299409   0.2994556  )
        78           N   tau(  78) = (   0.6875000   0.1804217   0.2994556  )
        79           N   tau(  79) = (   0.6875000   0.3969281   0.2994556  )
        80           N   tau(  80) = (   0.6875000   0.6134345   0.2994556  )
        81           N   tau(  81) = (   0.0625000   0.8299409   0.2994556  )
        82           N   tau(  82) = (   0.0625000   0.1804217   0.2994556  )
        83           N   tau(  83) = (   0.0625000   0.3969281   0.2994556  )
        84           N   tau(  84) = (   0.0625000   0.6134345   0.2994556  )
        85           N   tau(  85) = (   0.3125000   0.8299409   0.2994556  )
        86           N   tau(  86) = (   0.3125000   0.1804217   0.2994556  )
        87           N   tau(  87) = (   0.3125000   0.3969281   0.2994556  )
        88           N   tau(  88) = (   0.3125000   0.6134345   0.2994556  )
        89           N   tau(  89) = (   0.5625000   0.8299409   0.2994556  )
        90           N   tau(  90) = (   0.5625000   0.1804217   0.2994556  )
        91           N   tau(  91) = (   0.5625000   0.3969281   0.2994556  )
        92           N   tau(  92) = (   0.5625000   0.6134345   0.2994556  )
        93           N   tau(  93) = (   0.8125000   0.8299409   0.2994556  )
        94           N   tau(  94) = (   0.8125000   0.1804217   0.2994556  )
        95           N   tau(  95) = (   0.8125000   0.3969281   0.2994556  )
        96           N   tau(  96) = (   0.8125000   0.6134345   0.2994556  )
        97           N   tau(  97) = (   0.0000000   0.0721685   0.2994556  )
        98           N   tau(  98) = (   0.0000000   0.2886749   0.2994556  )
        99           N   tau(  99) = (   0.0000000   0.5051813   0.2994556  )
       100           N   tau( 100) = (   0.0000000   0.7216877   0.2994556  )
       101           N   tau( 101) = (   0.2500000   0.0721685   0.2994556  )
       102           N   tau( 102) = (   0.2500000   0.2886749   0.2994556  )
       103           N   tau( 103) = (   0.2500000   0.5051813   0.2994556  )
       104           N   tau( 104) = (   0.2500000   0.7216877   0.2994556  )
       105           N   tau( 105) = (   0.5000000   0.0721685   0.2994556  )
       106           N   tau( 106) = (   0.5000000   0.2886749   0.2994556  )
       107           N   tau( 107) = (   0.5000000   0.5051813   0.2994556  )
       108           N   tau( 108) = (   0.5000000   0.7216877   0.2994556  )
       109           N   tau( 109) = (   0.7500000   0.0721685   0.2994556  )
       110           N   tau( 110) = (   0.7500000   0.2886749   0.2994556  )
       111           N   tau( 111) = (   0.7500000   0.5051813   0.2994556  )
       112           N   tau( 112) = (   0.7500000   0.7216877   0.2994556  )
       113           N   tau( 113) = (   0.1250000   0.0721685   0.2994556  )
       114           N   tau( 114) = (   0.1250000   0.2886749   0.2994556  )
       115           N   tau( 115) = (   0.1250000   0.5051813   0.2994556  )
       116           N   tau( 116) = (   0.1250000   0.7216877   0.2994556  )
       117           N   tau( 117) = (   0.3750000   0.0721685   0.2994556  )
       118           N   tau( 118) = (   0.3750000   0.2886749   0.2994556  )
       119           N   tau( 119) = (   0.3750000   0.5051813   0.2994556  )
       120           N   tau( 120) = (   0.3750000   0.7216877   0.2994556  )
       121           N   tau( 121) = (   0.6250000   0.0721685   0.2994556  )
       122           N   tau( 122) = (   0.6250000   0.2886749   0.2994556  )
       123           N   tau( 123) = (   0.6250000   0.5051813   0.2994556  )
       124           N   tau( 124) = (   0.6250000   0.7216877   0.2994556  )
       125           N   tau( 125) = (   0.8750000   0.0721685   0.2994556  )
       126           N   tau( 126) = (   0.8750000   0.2886749   0.2994556  )
       127           N   tau( 127) = (   0.8750000   0.5051813   0.2994556  )
       128           N   tau( 128) = (   0.8750000   0.7216877   0.2994556  )
       129           O   tau( 129) = (   0.0000000   0.0000000   0.4691466  )
       130           O   tau( 130) = (   0.0000000   0.2165064   0.4691466  )
       131           O   tau( 131) = (   0.0000000   0.4330128   0.4691466  )
       132           O   tau( 132) = (   0.0000000   0.6495192   0.4691466  )
       133           O   tau( 133) = (   0.2500000   0.0000000   0.4691466  )
       134           O   tau( 134) = (   0.2500000   0.2165064   0.4691466  )
       135           O   tau( 135) = (   0.2500000   0.4330128   0.4691466  )
       136           O   tau( 136) = (   0.2500000   0.6495192   0.4691466  )
       137           O   tau( 137) = (   0.5000000   0.0000000   0.4691466  )
       138           O   tau( 138) = (   0.5000000   0.2165064   0.4691466  )
       139           O   tau( 139) = (   0.5000000   0.4330128   0.4691466  )
       140           O   tau( 140) = (   0.5000000   0.6495192   0.4691466  )
       141           O   tau( 141) = (   0.7500000   0.0000000   0.4691466  )
       142           O   tau( 142) = (   0.7500000   0.2165064   0.4691466  )
       143           O   tau( 143) = (   0.7500000   0.4330128   0.4691466  )
       144           O   tau( 144) = (   0.7500000   0.6495192   0.4691466  )
       145           H   tau( 145) = (   0.0000000   0.0377786   0.4399063  )
       146           H   tau( 146) = (   0.0000000   0.2542850   0.4399063  )
       147           H   tau( 147) = (   0.0000000   0.4707914   0.4399063  )
       148           H   tau( 148) = (   0.0000000   0.6872978   0.4399063  )
       149           H   tau( 149) = (   0.2500000   0.0377786   0.4399063  )
       150           H   tau( 150) = (   0.2500000   0.2542850   0.4399063  )
       151           H   tau( 151) = (   0.2500000   0.4707914   0.4399063  )
       152           H   tau( 152) = (   0.2500000   0.6872978   0.4399063  )
       153           H   tau( 153) = (   0.5000000   0.0377786   0.4399063  )
       154           H   tau( 154) = (   0.5000000   0.2542850   0.4399063  )
       155           H   tau( 155) = (   0.5000000   0.4707914   0.4399063  )
       156           H   tau( 156) = (   0.5000000   0.6872978   0.4399063  )
       157           H   tau( 157) = (   0.7500000   0.0377786   0.4399063  )
       158           H   tau( 158) = (   0.7500000   0.2542850   0.4399063  )
       159           H   tau( 159) = (   0.7500000   0.4707914   0.4399063  )
       160           H   tau( 160) = (   0.7500000   0.6872978   0.4399063  )
       161           H   tau( 161) = (   0.0000000   0.8282469   0.4399063  )
       162           H   tau( 162) = (   0.0000000   0.1787278   0.4399063  )
       163           H   tau( 163) = (   0.0000000   0.3952341   0.4399063  )
       164           H   tau( 164) = (   0.0000000   0.6117405   0.4399063  )
       165           H   tau( 165) = (   0.2500000   0.8282469   0.4399063  )
       166           H   tau( 166) = (   0.2500000   0.1787278   0.4399063  )
       167           H   tau( 167) = (   0.2500000   0.3952341   0.4399063  )
       168           H   tau( 168) = (   0.2500000   0.6117405   0.4399063  )
       169           H   tau( 169) = (   0.5000000   0.8282469   0.4399063  )
       170           H   tau( 170) = (   0.5000000   0.1787278   0.4399063  )
       171           H   tau( 171) = (   0.5000000   0.3952341   0.4399063  )
       172           H   tau( 172) = (   0.5000000   0.6117405   0.4399063  )
       173           H   tau( 173) = (   0.7500000   0.8282469   0.4399063  )
       174           H   tau( 174) = (   0.7500000   0.1787278   0.4399063  )
       175           H   tau( 175) = (   0.7500000   0.3952341   0.4399063  )
       176           H   tau( 176) = (   0.7500000   0.6117405   0.4399063  )

     number of k points=     4
                       cart. coord. in units 2pi/alat
        k(    1) = (   0.0000000   0.0000000   0.0000000), wk =   0.2222222
        k(    2) = (   0.0000000   0.3849001   0.0000000), wk =   0.4444444
        k(    3) = (   0.3333333   0.0000000   0.0000000), wk =   0.4444444
        k(    4) = (   0.3333333   0.3849001   0.0000000), wk =   0.8888889

     Dense  grid:  3509247 G-vectors     FFT dimensions: ( 180, 150, 270)

     Estimated max dynamical RAM per process >     399.82 MB

     Estimated total dynamical RAM >      49.98 GB

     Check: negative core charge=   -0.000008

     Initial potential from superposition of free atoms

     starting charge     639.9811, renormalised to     640.0000

     negative rho (up, down):  7.493E-02 0.000E+00
     Starting wfcs are  608 randomized atomic wfcs
     Checking if some PAW data can be deallocated... 

     total cpu time spent up to now is       32.1 secs

     per-process dynamical memory:   369.3 Mb

     Self-consistent Calculation

     iteration #  1     ecut=    51.45 Ry     beta= 0.70
     Davidson diagonalization with overlap
     ethr =  1.00E-02,  avg # of iterations = 10.2

     negative rho (up, down):  1.417E-01 0.000E+00

     total cpu time spent up to now is      185.7 secs

     total energy              =   -3243.97538054 Ry
     estimated scf accuracy    <      33.02490008 Ry

     iteration #  2     ecut=    51.45 Ry     beta= 0.70
     Davidson diagonalization with overlap
     ethr =  5.16E-03,  avg # of iterations =  5.2

     negative rho (up, down):  1.433E-01 0.000E+00

     total cpu time spent up to now is      290.9 secs

     total energy              =   -3251.41182622 Ry
     estimated scf accuracy    <      20.47709494 Ry

     iteration #  3     ecut=    51.45 Ry     beta= 0.70
     Davidson diagonalization with overlap
     ethr =  3.20E-03,  avg # of iterations =  3.5

     negative rho (up, down):  1.675E-01 0.000E+00

     total cpu time spent up to now is      367.0 secs

     total energy              =   -3254.97745493 Ry
     estimated scf accuracy    <       0.38107174 Ry

     iteration #  4     ecut=    51.45 Ry     beta= 0.70
     Davidson diagonalization with overlap
     c_bands:  2 eigenvalues not converged
     ethr =  5.95E-05,  avg # of iterations = 18.8

     negative rho (up, down):  1.697E-01 0.000E+00

     total cpu time spent up to now is      615.1 secs

     total energy              =   -3255.90777338 Ry
     estimated scf accuracy    <       2.11188205 Ry

     iteration #  5     ecut=    51.45 Ry     beta= 0.70
     Davidson diagonalization with overlap
     ethr =  5.95E-05,  avg # of iterations =  5.0

     negative rho (up, down):  1.778E-01 0.000E+00

     total cpu time spent up to now is      698.7 secs

     total energy              =   -3255.70664579 Ry
     estimated scf accuracy    <       0.61909086 Ry

     iteration #  6     ecut=    51.45 Ry     beta= 0.70
     Davidson diagonalization with overlap
     ethr =  5.95E-05,  avg # of iterations =  6.0

     negative rho (up, down):  1.817E-01 0.000E+00

     total cpu time spent up to now is      784.8 secs

     total energy              =   -3255.82676747 Ry
     estimated scf accuracy    <       0.00161695 Ry

     iteration #  7     ecut=    51.45 Ry     beta= 0.70
     Davidson diagonalization with overlap
     ethr =  2.53E-07,  avg # of iterations = 16.8

     negative rho (up, down):  1.817E-01 0.000E+00

     total cpu time spent up to now is      946.9 secs

     total energy              =   -3255.82702125 Ry
     estimated scf accuracy    <       0.00201480 Ry

     iteration #  8     ecut=    51.45 Ry     beta= 0.70
     Davidson diagonalization with overlap
     ethr =  2.53E-07,  avg # of iterations =  2.0

     negative rho (up, down):  1.815E-01 0.000E+00

     total cpu time spent up to now is     1017.2 secs

     total energy              =   -3255.82697083 Ry
     estimated scf accuracy    <       0.00049653 Ry

     iteration #  9     ecut=    51.45 Ry     beta= 0.70
     Davidson diagonalization with overlap
     ethr =  7.76E-08,  avg # of iterations =  5.0

     negative rho (up, down):  1.814E-01 0.000E+00

     total cpu time spent up to now is     1101.9 secs

     total energy              =   -3255.82715320 Ry
     estimated scf accuracy    <       0.00002954 Ry

     iteration # 10     ecut=    51.45 Ry     beta= 0.70
     Davidson diagonalization with overlap
     ethr =  4.62E-09,  avg # of iterations =  3.0

     negative rho (up, down):  1.814E-01 0.000E+00

     total cpu time spent up to now is     1179.5 secs

     total energy              =   -3255.82715399 Ry
     estimated scf accuracy    <       0.00001288 Ry

     iteration # 11     ecut=    51.45 Ry     beta= 0.70
     Davidson diagonalization with overlap
     ethr =  2.01E-09,  avg # of iterations =  4.8

     negative rho (up, down):  1.815E-01 0.000E+00

     total cpu time spent up to now is     1258.7 secs

     End of self-consistent calculation

          k = 0.0000 0.0000 0.0000 (438713 PWs)   bands (ev):

   -24.1763 -24.1755 -24.1754 -24.1747 -24.1690 -24.1688 -24.1684 -24.1683
   -24.1682 -24.1680 -24.1676 -24.1676 -24.1615 -24.1611 -24.1609 -24.1605
   -23.2430 -23.0189 -23.0188 -22.9451 -22.9446 -22.7254 -22.7254 -22.7249
   -22.7249 -22.3880 -22.3457 -22.1128 -22.1124 -22.0980 -22.0854 -22.0704
   -22.0698 -21.8939 -21.8939 -21.8811 -21.8811 -21.3732 -21.3732 -21.3583
   -21.3174 -21.3048 -21.2868 -21.1521 -21.1521 -21.1517 -21.1517 -20.8943
   -20.8933 -20.7203 -20.7203 -20.7194 -20.7194 -20.5731 -20.5731 -20.5620
   -20.5620 -20.3007 -20.2998 -20.2897 -20.2741 -20.2600 -20.2593 -20.2260
   -20.2257 -20.2154 -20.2146 -20.1642 -20.1548 -20.1525 -20.0161 -20.0161
   -19.9097 -19.9097 -19.9091 -19.9091 -19.7148 -19.6755 -19.6179 -19.6179
   -14.4671 -14.4654 -14.4638 -14.2855 -14.2854 -13.9943 -13.9943 -13.9939
   -13.9939 -13.9687 -13.9683 -13.9654 -13.9641 -13.7970 -13.7582 -13.6986
   -13.6986 -13.6953 -13.6953 -13.5435 -13.5435 -13.2324 -13.2316 -13.1898
   -13.1893 -13.1827 -13.1752 -13.1675 -13.1669 -13.1399 -13.1399 -13.1391
   -13.1391 -12.6394 -12.6394 -12.6388 -12.6388 -12.5890 -12.5890 -12.1459
   -12.1327 -12.0744 -12.0521 -12.0497 -12.0493 -12.0491 -12.0335 -12.0186
   -12.0085 -11.9638 -11.9638 -11.9625 -11.9625 -11.9621 -11.9621 -11.9620
   -11.9619 -11.8731 -11.8722 -11.8721 -11.8654 -11.7203 -11.7203 -11.4540
   -11.4537 -11.4532 -11.4474 -11.4467 -11.4464 -11.3068 -11.3068 -11.3063
   -11.3063 -10.8481 -10.8481 -10.8453 -10.8405 -10.8405 -10.6716 -10.6714
   -10.6711 -10.6626 -10.6623 -10.6620 -10.5452 -10.5452 -10.5349 -10.5349
   -10.4519 -10.4510 -10.4466 -10.4452 -10.4374 -10.4373 -10.1899 -10.1899
   -10.1896 -10.1896 -10.1441 -10.1441 -10.1440 -10.1440  -9.9990  -9.9990
    -9.7868  -9.7732  -9.7575  -9.7551  -9.7551  -9.7523  -9.7523  -9.7439
    -9.7421  -9.7365  -9.7126  -9.7117  -9.7096  -9.7047  -9.6010  -9.4383
    -9.4383  -9.4379  -9.4379  -9.3941  -9.3939  -9.3521  -9.3520  -9.3024
    -9.2566  -9.2248  -9.2246  -9.1959  -9.1959  -9.1876  -9.1876  -9.0310
    -9.0310  -8.9793  -8.9793  -8.7894  -8.7894  -8.7888  -8.7888  -8.5362
    -8.5357  -8.5319  -8.5267  -8.5222  -8.5177  -8.5173  -8.4999  -8.3980
    -8.3457  -8.3457  -8.2362  -8.1673  -8.1418  -8.1030  -8.1029  -8.1029
    -8.1029  -8.1027  -8.1020  -7.9949  -7.9832  -7.9831  -7.9381  -7.9238
    -7.9238  -7.9168  -7.9167  -7.9088  -7.9080  -7.9079  -7.8626  -7.8626
    -7.8623  -7.8623  -7.8220  -7.8220  -7.8220  -7.8218  -7.7904  -7.7904
    -7.7579  -7.5549  -7.5547  -7.4499  -7.4497  -7.3502  -7.3502  -7.3180
    -7.3180  -7.3178  -7.3178  -7.1131  -7.1131  -7.0895  -7.0895  -6.9039
    -6.9032  -6.7159  -6.7158  -6.7034  -6.6912  -6.6629  -6.6627  -6.6008
    -6.6003  -6.5890  -6.5889  -6.4893  -6.4851  -6.4733  -6.2657  -6.2657
    -6.1278  -6.1278  -6.1276  -6.1276  -5.9942  -5.9587  -5.9587  -5.9580
    -5.9578  -5.9352  -5.9055  -5.9054  -5.9052  -5.9051  -5.8988  -5.8987
    -5.8881  -5.8717  -5.8717  -5.8551  -5.7983  -5.7289  -5.6287  -5.6287
    -1.0729  -0.8792  -0.8792  -0.8474  -0.7842  -0.7613  -0.7545  -0.7467
    -0.7437  -0.7437  -0.6450  -0.6450  -0.6449  -0.6449  -0.6269  -0.6269
    -0.5297  -0.5294  -0.3148  -0.3144  -0.3116  -0.3114  -0.1764  -0.1450
    -0.1450  -0.1447  -0.1447   0.0133   0.1000   0.1000   0.1152   0.1152
     0.1494   0.1494   0.1661   0.1692   0.1692   0.1800   0.2058   0.2059
     0.3447   0.3451   0.5294   0.5742   0.5744   0.5986   0.5986   0.5989
     0.5989   0.7148   0.7148   0.7150   0.7151   0.7178   0.7179   0.7607
     0.8153   0.8906   0.8906   1.0297   1.0303   1.0790   1.1052   1.1207
     1.1309   1.1309   1.2008   1.2014   1.2745   1.2745   1.2746   1.2746
     1.3628   1.3974   1.3974   1.3980   1.3980   1.4439   1.4439   1.4754
     1.5071   1.5071   1.5444   1.5450   1.5784   1.5786   1.6231   1.6346
     1.6595   1.6960   1.7682   1.8234   1.8234   1.8583   1.8583   1.8594
     1.8594   1.8636   1.9441   1.9441   1.9443   1.9443   1.9722   1.9727
     1.9746   1.9749   1.9758   2.0097   2.0276   2.0585   2.0880   2.0880
     2.2535   2.2826   2.2826   2.3436   2.3436   2.3441   2.3441   2.4130
     2.4283   2.4283   2.4396   2.4409   2.4460   2.4614   2.4657   2.4663
     2.4719   2.4805   2.4810   2.5455   2.5714   2.6209   2.6209   2.6462
     2.6462   2.6465   2.6465   2.7150   2.7220   2.7224   2.7679   2.7679
     2.7681   2.7681   2.8704   2.8704   2.8708   2.8708   2.9598   2.9658
     3.0073   3.0080   3.0093   3.0120   3.0122   3.0126   3.0500   3.0506
     3.0895   3.0895   3.0899   3.0899   3.1660   3.3083   3.3083   3.3202
     3.3202   3.3939   3.4017   3.4092   3.4092   3.4214   3.4214   3.4265
     3.4358   3.4360   3.4369   3.4378   3.4446   3.4883   3.4883   3.4888
     3.4889   3.5150   3.5150   3.5449   3.5449   3.5464   3.5538   3.6083
     3.6086   3.6199   3.6449   3.6453   3.6632   3.6636   3.6848   3.6867
     3.6867   3.7237   3.7441   3.7484   3.7526   3.7526   3.7965   3.7966

          k = 0.0000 0.3849 0.0000 (438623 PWs)   bands (ev):

   -24.1753 -24.1746 -24.1744 -24.1738 -24.1725 -24.1719 -24.1718 -24.1712
   -24.1652 -24.1647 -24.1646 -24.1641 -24.1625 -24.1621 -24.1619 -24.1615
   -23.2096 -23.1098 -22.9859 -22.9859 -22.8876 -22.8876 -22.7171 -22.5012
   -22.5012 -22.4307 -22.3571 -22.3147 -22.2647 -22.2223 -22.2198 -22.2198
   -21.9039 -21.8613 -21.7102 -21.6435 -21.6008 -21.5146 -21.5146 -21.3480
   -21.3480 -21.3022 -21.2732 -21.2732 -21.1185 -21.1185 -20.9991 -20.9860
   -20.9860 -20.9579 -20.7895 -20.7895 -20.6452 -20.6042 -20.5270 -20.3657
   -20.3657 -20.3353 -20.3353 -20.2933 -20.2664 -20.2545 -20.2449 -20.2428
   -20.1955 -20.1842 -20.1727 -20.1611 -20.1106 -20.1106 -20.1097 -20.1097
   -20.0003 -19.9603 -19.7909 -19.7522 -19.7522 -19.7513 -19.6522 -19.6522
   -14.4077 -14.4044 -14.3096 -14.2354 -14.2320 -14.1404 -14.1404 -14.0041
   -14.0041 -13.9017 -13.9017 -13.8753 -13.8732 -13.8732 -13.7350 -13.7350
   -13.7160 -13.6792 -13.6733 -13.6733 -13.6422 -13.6371 -13.4967 -13.4658
   -13.4051 -13.4051 -13.3292 -13.3228 -13.0447 -13.0447 -12.8354 -12.8216
   -12.4506 -12.4501 -12.4435 -12.4218 -12.4218 -12.3620 -12.3620 -12.2260
   -12.2260 -12.0690 -12.0601 -12.0414 -12.0385 -12.0384 -12.0352 -12.0069
   -12.0048 -12.0046 -12.0044 -11.9287 -11.9272 -11.9271 -11.9189 -11.8948
   -11.8947 -11.8854 -11.8751 -11.8661 -11.8661 -11.8617 -11.8617 -11.8369
   -11.8125 -11.6379 -11.6379 -11.5958 -11.5918 -11.5779 -11.2791 -11.2722
   -11.1367 -11.1299 -10.9465 -10.9433 -10.8877 -10.8821 -10.7994 -10.7254
   -10.7254 -10.6627 -10.5008 -10.5008 -10.4956 -10.4956 -10.3813 -10.3813
   -10.3672 -10.3651 -10.3651 -10.3578 -10.2329 -10.2209 -10.1900 -10.1900
   -10.1293 -10.0822 -10.0822 -10.0676 -10.0634  -9.9248  -9.9248  -9.8825
    -9.8813  -9.8813  -9.8673  -9.8398  -9.8398  -9.8127  -9.8024  -9.7492
    -9.7364  -9.6859  -9.6757  -9.6415  -9.6415  -9.5906  -9.5906  -9.5689
    -9.5600  -9.5588  -9.4679  -9.4679  -9.4574  -9.4574  -9.4327  -9.3966
    -9.3966  -9.3584  -9.3584  -9.2289  -9.2128  -9.1561  -9.0683  -8.9382
    -8.8777  -8.8633  -8.8011  -8.7837  -8.7603  -8.7457  -8.7457  -8.7202
    -8.5788  -8.5014  -8.5014  -8.4823  -8.4583  -8.4450  -8.4246  -8.3142
    -8.3142  -8.3003  -8.3003  -8.2837  -8.2837  -8.2248  -8.2183  -8.2183
    -8.1635  -8.0748  -8.0747  -7.9968  -7.9921  -7.9866  -7.9503  -7.9503
    -7.9357  -7.9297  -7.9280  -7.9199  -7.9198  -7.9085  -7.8863  -7.8824
    -7.8823  -7.8726  -7.8725  -7.8493  -7.8493  -7.7948  -7.6785  -7.6428
    -7.6427  -7.6263  -7.5496  -7.5496  -7.4625  -7.4104  -7.4104  -7.3875
    -7.3875  -7.2067  -7.1708  -7.1632  -7.0485  -7.0376  -6.9716  -6.8059
    -6.8058  -6.7631  -6.7631  -6.6920  -6.6900  -6.6529  -6.6363  -6.6149
    -6.5461  -6.5383  -6.5047  -6.4996  -6.4264  -6.4264  -6.4156  -6.4156
    -6.2605  -6.2082  -5.9980  -5.9700  -5.9699  -5.9654  -5.9577  -5.9576
    -5.9473  -5.9385  -5.9249  -5.9061  -5.9060  -5.9011  -5.9009  -5.8859
    -5.8799  -5.8634  -5.8573  -5.8482  -5.8241  -5.8241  -5.6822  -5.6822
    -1.0024  -0.8408  -0.8408  -0.8102  -0.7679  -0.7679  -0.7285  -0.7172
    -0.7035  -0.6418  -0.6418  -0.6169  -0.5772  -0.5610  -0.5426  -0.5008
    -0.5008  -0.4539  -0.4539  -0.4410  -0.4409  -0.3713  -0.2705  -0.1918
    -0.1918  -0.1356  -0.1204  -0.0852  -0.0748  -0.0363  -0.0363  -0.0094
     0.0785   0.0955   0.1035   0.1100   0.2278   0.2278   0.2457   0.2457
     0.2695   0.3898   0.4027   0.4027   0.4834   0.4834   0.5851   0.6140
     0.7296   0.7358   0.7523   0.7538   0.7538   0.8089   0.8776   0.8776
     0.9461   0.9462   0.9545   0.9738   1.0738   1.0738   1.0953   1.1117
     1.1117   1.1348   1.1571   1.1695   1.2624   1.3018   1.3090   1.3711
     1.3711   1.4012   1.4208   1.4615   1.4615   1.4838   1.4985   1.4986
     1.5309   1.5513   1.5728   1.5728   1.6753   1.6753   1.6764   1.6781
     1.6970   1.7699   1.7699   1.7704   1.7704   1.7973   1.8109   1.8942
     1.9042   1.9042   1.9338   1.9338   1.9615   1.9683   1.9704   1.9834
     2.0287   2.0637   2.0685   2.0685   2.0836   2.0836   2.1049   2.1060
     2.1270   2.1859   2.2239   2.2427   2.2551   2.2551   2.3067   2.3237
     2.3237   2.3256   2.3256   2.3388   2.3690   2.4509   2.4518   2.4518
     2.4650   2.4770   2.4770   2.5984   2.6219   2.6244   2.6244   2.6727
     2.6727   2.7131   2.7131   2.7380   2.7380   2.7556   2.7614   2.7645
     2.7717   2.7975   2.8053   2.8053   2.8289   2.8289   2.8450   2.8676
     2.9639   2.9639   2.9890   3.0131   3.0189   3.0905   3.1162   3.1180
     3.1726   3.1778   3.1996   3.1996   3.2117   3.2213   3.2213   3.2472
     3.2472   3.2753   3.2835   3.2896   3.3025   3.3025   3.3121   3.3308
     3.4420   3.4478   3.4478   3.4531   3.4580   3.4580   3.4632   3.4777
     3.5065   3.5429   3.5485   3.5652   3.5652   3.5692   3.5796   3.5797
     3.5908   3.5908   3.5933   3.6022   3.6152   3.6703   3.6913   3.7100
     3.7117   3.7260   3.7260   3.7341   3.7654   3.7896   3.7896   3.8244

          k = 0.3333 0.0000 0.0000 (438610 PWs)   bands (ev):

   -24.1762 -24.1758 -24.1751 -24.1748 -24.1689 -24.1687 -24.1685 -24.1685
   -24.1679 -24.1679 -24.1677 -24.1677 -24.1615 -24.1613 -24.1608 -24.1606
   -23.2179 -23.1430 -22.9205 -22.9200 -22.8469 -22.8468 -22.8465 -22.6290
   -22.5573 -22.5568 -22.3454 -22.3449 -22.0750 -22.0656 -22.0624 -22.0065
   -21.9938 -21.8023 -21.8018 -21.7399 -21.7322 -21.7267 -21.5491 -21.5347
   -21.4861 -21.4856 -21.0737 -21.0644 -21.0003 -20.8747 -20.8737 -20.8306
   -20.8299 -20.8191 -20.8085 -20.7994 -20.7988 -20.6291 -20.5945 -20.5936
   -20.4948 -20.4944 -20.4448 -20.4440 -20.3620 -20.3506 -20.2165 -20.2049
   -20.1434 -20.1196 -20.1189 -20.0938 -20.0199 -20.0195 -19.9873 -19.9867
   -19.9775 -19.9164 -19.9150 -19.9145 -19.8055 -19.7522 -19.6091 -19.5759
   -14.4453 -14.3851 -14.3738 -14.3705 -14.1482 -14.1480 -14.1477 -14.1419
   -14.1413 -14.1069 -14.1035 -13.9763 -13.7226 -13.7223 -13.6397 -13.6390
   -13.5821 -13.5610 -13.4884 -13.4425 -13.4138 -13.4135 -13.2206 -13.2198
   -13.1949 -13.1946 -13.1886 -13.1857 -13.1798 -13.1794 -13.0937 -13.0930
   -13.0852 -13.0845 -12.7885 -12.7397 -12.6189 -12.6168 -12.5608 -12.2956
   -12.2718 -12.0517 -12.0506 -12.0478 -12.0467 -12.0243 -12.0238 -11.9636
   -11.9636 -11.9629 -11.9629 -11.9625 -11.9625 -11.9582 -11.9582 -11.8976
   -11.8715 -11.8706 -11.8698 -11.8566 -11.6089 -11.5629 -11.5623 -11.5000
   -11.4986 -11.4908 -11.4903 -11.3551 -11.3546 -11.1251 -11.1246 -11.0948
   -11.0912 -11.0864 -11.0570 -11.0565 -11.0517 -10.9872 -10.8117 -10.7661
   -10.7656 -10.7322 -10.7233 -10.7112 -10.6843 -10.6749 -10.6687 -10.6683
   -10.5005 -10.4178 -10.4054 -10.4052 -10.3142 -10.3070 -10.3069 -10.1151
   -10.1147 -10.1025 -10.0232  -9.9847  -9.9844  -9.9190  -9.9189  -9.8135
    -9.7896  -9.7849  -9.7822  -9.7821  -9.7770  -9.7739  -9.7683  -9.7681
    -9.7334  -9.7306  -9.7181  -9.7151  -9.6834  -9.6778  -9.6354  -9.6352
    -9.4955  -9.4939  -9.4937  -9.4926  -9.4892  -9.3430  -9.3427  -9.2718
    -9.2552  -9.2255  -9.1806  -9.1326  -9.1119  -9.1116  -9.0390  -8.9929
    -8.8935  -8.8933  -8.8685  -8.8592  -8.8285  -8.8090  -8.8066  -8.8062
    -8.7686  -8.6225  -8.6128  -8.5859  -8.5054  -8.4748  -8.4746  -8.3858
    -8.3854  -8.3850  -8.2776  -8.2772  -8.1664  -8.1655  -8.0688  -8.0587
    -8.0584  -8.0487  -8.0187  -8.0015  -7.9999  -7.9998  -7.9866  -7.9866
    -7.9368  -7.9365  -7.9291  -7.9220  -7.9219  -7.9110  -7.9104  -7.9103
    -7.9092  -7.8402  -7.6795  -7.6788  -7.6765  -7.6763  -7.6759  -7.5301
    -7.5300  -7.5165  -7.5163  -7.4883  -7.4881  -7.4746  -7.4188  -7.4101
    -7.4099  -7.3234  -7.1973  -7.1433  -7.1431  -7.1059  -7.0128  -6.9986
    -6.9984  -6.9545  -6.9296  -6.9294  -6.7942  -6.7855  -6.5685  -6.5680
    -6.4552  -6.4487  -6.4484  -6.3817  -6.2912  -6.2909  -6.2461  -6.2459
    -6.2443  -6.1341  -6.1339  -6.1151  -5.9919  -5.9729  -5.9725  -5.9525
    -5.9524  -5.9377  -5.9337  -5.9337  -5.9305  -5.9174  -5.8872  -5.8832
    -5.8832  -5.8786  -5.8744  -5.8744  -5.8620  -5.8159  -5.6210  -5.5632
    -1.0341  -0.9307  -0.9087  -0.8780  -0.7460  -0.7358  -0.7357  -0.7331
    -0.7276  -0.7182  -0.6680  -0.6443  -0.6418  -0.6416  -0.6253  -0.4470
    -0.4467  -0.4159  -0.4158  -0.4046  -0.3466  -0.3349  -0.3346  -0.3197
    -0.3005  -0.1372  -0.1285  -0.1284  -0.1244  -0.0149   0.1028   0.1031
     0.1229   0.1231   0.3257   0.3258   0.3876   0.3880   0.4097   0.4599
     0.4601   0.4675   0.4678   0.5478   0.5479   0.5666   0.6380   0.6587
     0.6837   0.6838   0.6897   0.6904   0.7143   0.7144   0.7187   0.7189
     0.7242   0.8524   0.9168   0.9172   0.9603   1.0701   1.0707   1.1205
     1.1220   1.1451   1.1456   1.1629   1.1657   1.1912   1.1918   1.2302
     1.2378   1.2556   1.2970   1.3134   1.3512   1.5170   1.5369   1.5908
     1.6193   1.6195   1.6415   1.6474   1.6480   1.6522   1.6683   1.6688
     1.6757   1.7359   1.7417   1.7419   1.7866   1.7997   1.8108   1.8111
     1.8674   1.8950   1.9648   1.9649   1.9805   1.9834   2.0137   2.0142
     2.0155   2.0346   2.0496   2.0623   2.0988   2.0992   2.1085   2.1089
     2.1295   2.1378   2.1378   2.1383   2.1406   2.1487   2.1676   2.2492
     2.2493   2.2945   2.4170   2.4836   2.4931   2.4971   2.5149   2.5192
     2.5198   2.5941   2.5946   2.5948   2.6017   2.6312   2.6317   2.6321
     2.6326   2.6652   2.6973   2.7632   2.7636   2.8674   2.8681   2.8851
     2.8855   2.9029   2.9593   2.9656   2.9806   2.9909   2.9978   2.9982
     3.0141   3.0294   3.0467   3.0485   3.0558   3.1003   3.1008   3.1012
     3.1018   3.1323   3.1538   3.1548   3.1787   3.1789   3.1937   3.2046
     3.2636   3.2910   3.2914   3.3066   3.3495   3.3659   3.3662   3.3750
     3.3752   3.4082   3.4084   3.4334   3.4335   3.4338   3.4515   3.4528
     3.4721   3.4833   3.4878   3.4915   3.5399   3.5633   3.5736   3.5914
     3.5930   3.6109   3.6363   3.6366   3.6593   3.6920   3.6987   3.7117
     3.7120   3.7222   3.7225   3.7427   3.7428   3.7639   3.7650   3.7696

          k = 0.3333 0.3849 0.0000 (438654 PWs)   bands (ev):

   -24.1752 -24.1749 -24.1741 -24.1739 -24.1724 -24.1722 -24.1715 -24.1713
   -24.1651 -24.1649 -24.1644 -24.1642 -24.1624 -24.1622 -24.1617 -24.1615
   -23.1846 -23.1098 -23.0849 -23.0106 -22.8143 -22.7172 -22.6929 -22.6206
   -22.5971 -22.5020 -22.4070 -22.3364 -22.3363 -22.1294 -22.0596 -22.0359
   -21.9474 -21.8593 -21.7043 -21.6881 -21.6223 -21.6215 -21.6033 -21.3683
   -21.3575 -21.3019 -21.2812 -21.2189 -21.1859 -21.0735 -20.9789 -20.9788
   -20.9160 -20.8128 -20.7548 -20.6806 -20.6135 -20.5709 -20.5334 -20.5244
   -20.5031 -20.4524 -20.4300 -20.4051 -20.3069 -20.2517 -20.2502 -20.2415
   -20.1910 -20.1898 -20.1271 -20.1197 -20.0630 -20.0389 -20.0067 -19.9943
   -19.9817 -19.8898 -19.8548 -19.8244 -19.7702 -19.7702 -19.6739 -19.6264
   -14.4104 -14.3307 -14.2905 -14.2486 -14.2337 -14.2336 -14.2200 -14.0137
   -13.9679 -13.9469 -13.8750 -13.8738 -13.8609 -13.8556 -13.8108 -13.6999
   -13.6980 -13.6396 -13.6376 -13.5849 -13.5817 -13.5751 -13.5609 -13.5505
   -13.5205 -13.4568 -13.2716 -13.2188 -12.9507 -12.9387 -12.8457 -12.7919
   -12.5633 -12.5262 -12.4588 -12.4473 -12.4444 -12.4378 -12.4308 -12.4278
   -12.2321 -12.0741 -12.0648 -12.0629 -12.0456 -12.0410 -12.0399 -12.0372
   -12.0145 -12.0066 -12.0057 -12.0052 -12.0037 -11.9189 -11.9188 -11.9129
   -11.9124 -11.8864 -11.8830 -11.8827 -11.8810 -11.8011 -11.7605 -11.6884
   -11.5959 -11.5942 -11.5932 -11.5803 -11.5568 -11.3977 -11.2598 -11.2414
   -11.0134 -10.9830 -10.9750 -10.9211 -10.8850 -10.8848 -10.8302 -10.7658
   -10.7365 -10.6657 -10.6296 -10.5674 -10.5301 -10.5256 -10.4835 -10.4752
   -10.4572 -10.3629 -10.3627 -10.3623 -10.3018 -10.2942 -10.2697 -10.2425
   -10.1372 -10.0967 -10.0661 -10.0661 -10.0655  -9.9999  -9.9796  -9.9675
    -9.9554  -9.9355  -9.8741  -9.8736  -9.8497  -9.8258  -9.7799  -9.7774
    -9.7086  -9.6787  -9.6699  -9.6185  -9.6140  -9.5913  -9.5680  -9.5356
    -9.5273  -9.3977  -9.3810  -9.3416  -9.3017  -9.2541  -9.2425  -9.2212
    -9.2211  -9.2168  -9.1817  -9.1557  -9.1214  -9.0923  -9.0766  -8.9749
    -8.9731  -8.9653  -8.9583  -8.9229  -8.9223  -8.8788  -8.8149  -8.7711
    -8.7308  -8.6568  -8.6434  -8.6323  -8.6226  -8.5274  -8.4707  -8.4705
    -8.3162  -8.3021  -8.2480  -8.2418  -8.2011  -8.1371  -8.0915  -8.0863
    -8.0636  -8.0539  -8.0398  -8.0219  -7.9981  -7.9913  -7.9869  -7.9341
    -7.9296  -7.9281  -7.9268  -7.9259  -7.9195  -7.9106  -7.9088  -7.8837
    -7.8705  -7.8703  -7.8294  -7.7999  -7.7943  -7.7350  -7.6884  -7.6548
    -7.6484  -7.5795  -7.5507  -7.4628  -7.4459  -7.3683  -7.3583  -7.2603
    -7.2202  -7.1746  -7.1627  -7.1540  -7.1132  -7.0557  -7.0370  -7.0221
    -7.0024  -6.9305  -6.9099  -6.8642  -6.7147  -6.6420  -6.6396  -6.6084
    -6.5411  -6.5343  -6.4437  -6.4425  -6.3493  -6.3147  -6.2609  -6.2602
    -6.2482  -6.0836  -6.0542  -6.0214  -5.9850  -5.9828  -5.9801  -5.9718
    -5.9458  -5.9421  -5.9337  -5.9274  -5.9202  -5.8855  -5.8835  -5.8807
    -5.8802  -5.8682  -5.8668  -5.8636  -5.8621  -5.8328  -5.7281  -5.6466
    -0.9629  -0.8573  -0.8436  -0.7745  -0.7735  -0.7483  -0.7390  -0.7334
    -0.6894  -0.6716  -0.6480  -0.6105  -0.5845  -0.5663  -0.5567  -0.5566
    -0.5315  -0.5039  -0.4712  -0.4623  -0.3451  -0.3364  -0.2132  -0.2070
    -0.1837  -0.0958  -0.0736  -0.0675  -0.0511  -0.0394  -0.0368  -0.0320
    -0.0309   0.0442   0.0495   0.1162   0.1176   0.2237   0.2707   0.3023
     0.3313   0.4305   0.4324   0.4676   0.4943   0.5508   0.6128   0.6392
     0.6556   0.7144   0.7454   0.7506   0.7596   0.7669   0.7935   0.8783
     0.8793   0.9078   0.9142   1.0130   1.0216   1.1371   1.1742   1.1761
     1.1902   1.2036   1.2180   1.2242   1.2995   1.3016   1.3034   1.3038
     1.3429   1.3826   1.4314   1.4320   1.4394   1.4661   1.4855   1.4857
     1.5194   1.5724   1.5730   1.5753   1.5895   1.6464   1.6576   1.6968
     1.7225   1.7256   1.7384   1.7448   1.8463   1.8469   1.8557   1.8626
     1.8674   1.8999   1.9014   1.9293   1.9303   1.9699   1.9839   1.9890
     1.9942   2.0021   2.0099   2.0194   2.0382   2.0563   2.0692   2.1034
     2.1235   2.1807   2.1987   2.2210   2.2633   2.3354   2.3443   2.3477
     2.3591   2.3766   2.3795   2.3839   2.3955   2.4130   2.4149   2.4699
     2.4910   2.5059   2.5089   2.5131   2.5398   2.5426   2.5674   2.6103
     2.6122   2.6277   2.6425   2.6715   2.7152   2.7279   2.8055   2.8069
     2.8638   2.8865   2.9057   2.9515   2.9533   2.9976   3.0053   3.0100
     3.0124   3.0160   3.0213   3.0275   3.0637   3.0672   3.1005   3.1022
     3.1043   3.1088   3.1141   3.1165   3.1314   3.2055   3.2257   3.2384
     3.2497   3.3086   3.3128   3.3154   3.3361   3.3536   3.3755   3.3785
     3.3964   3.3989   3.4389   3.4615   3.4680   3.4968   3.5005   3.5073
     3.5085   3.5313   3.5357   3.5387   3.5809   3.5895   3.5915   3.6153
     3.6253   3.6326   3.6336   3.6378   3.6426   3.6455   3.6468   3.6606
     3.6706   3.6924   3.7018   3.7167   3.7318   3.7333   3.7475   3.7677

     highest occupied, lowest unoccupied level (ev):    -5.5632   -1.0729

!    total energy              =   -3255.82715617 Ry
     total all-electron energy =    -12647.818572 Ry
     estimated scf accuracy    <       0.00000087 Ry

     The total energy is the sum of the following terms:
     one-electron contribution =  -29666.39959746 Ry
     hartree contribution      =   14950.78768300 Ry
     xc contribution           =    -706.71388183 Ry
     ewald contribution        =   13163.43307205 Ry
     one-center paw contrib.   =    -996.93443193 Ry

     convergence has been achieved in  11 iterations

     Writing all to output data dir ./hBN_water_Oup_Hdown.save/

     init_run     :     30.29s CPU     31.02s WALL (       1 calls)
     electrons    :   1216.53s CPU   1226.74s WALL (       1 calls)

     Called by init_run:
     wfcinit      :     25.67s CPU     26.26s WALL (       1 calls)
     potinit      :      0.84s CPU      0.85s WALL (       1 calls)
     hinit0       :      1.36s CPU      1.39s WALL (       1 calls)

     Called by electrons:
     c_bands      :   1131.18s CPU   1140.67s WALL (      11 calls)
     sum_band     :     81.12s CPU     81.37s WALL (      11 calls)
     v_of_rho     :      1.03s CPU      1.08s WALL (      12 calls)
     newd         :      2.16s CPU      2.22s WALL (      12 calls)
     PAW_pot      :      0.87s CPU      0.88s WALL (      12 calls)
     mix_rho      :      0.30s CPU      0.31s WALL (      11 calls)

     Called by c_bands:
     init_us_2    :      6.70s CPU      6.77s WALL (      92 calls)
     init_us_2:cp :      6.69s CPU      6.77s WALL (      92 calls)
     cegterg      :   1122.54s CPU   1131.64s WALL (      45 calls)

     Called by *egterg:
     cdiaghg      :     70.53s CPU     73.69s WALL (     366 calls)
     h_psi        :    499.12s CPU    501.87s WALL (     370 calls)
     s_psi        :    111.08s CPU    111.26s WALL (     370 calls)
     g_psi        :      1.69s CPU      1.70s WALL (     321 calls)

     Called by h_psi:
     h_psi:calbec :    131.95s CPU    132.14s WALL (     370 calls)
     vloc_psi     :    243.05s CPU    243.78s WALL (     370 calls)
     add_vuspsi   :    120.56s CPU    120.72s WALL (     370 calls)

     General routines
     calbec       :    169.44s CPU    169.66s WALL (     414 calls)
     fft          :      0.77s CPU      0.82s WALL (     132 calls)
     ffts         :      0.05s CPU      0.05s WALL (      11 calls)
     fftw         :    262.86s CPU    263.62s WALL (  166462 calls)

     Parallel routines

     PWSCF        :  20m59.15s CPU  21m21.32s WALL


   This run was terminated on:  23:30:32  20Oct2022            

=------------------------------------------------------------------------------=
   JOB DONE.
=------------------------------------------------------------------------------=
