
     Program PWSCF v.7.1 starts on 25Oct2022 at 20: 0:46 
        Git branch: HEAD
        Last git commit: 564a7b486665e8dd0223d6e514b84195d1a96c10
        Last git commit date: Tue Jun 14 16:16:48 2022 +0000
        Last git commit subject: Merge branch 'update_version_number' into 'develop

     This program is part of the open-source Quantum ESPRESSO suite
     for quantum simulation of materials; please cite
         "P. Giannozzi et al., J. Phys.:Condens. Matter 21 395502 (2009);
         "P. Giannozzi et al., J. Phys.:Condens. Matter 29 465901 (2017);
         "P. Giannozzi et al., J. Chem. Phys. 152 154105 (2020);
          URL http://www.quantum-espresso.org", 
     in publications or presentations arising from this work. More details at
     http://www.quantum-espresso.org/quote

     Parallel version (MPI & OpenMP), running on     128 processor cores
     Number of MPI processes:               128
     Threads/MPI process:                     1

     MPI processes distributed on     1 nodes
     998091 MiB available memory on the printing compute node when the environment starts

     Reading input from scf.in

     Current dimensions of program PWSCF are:
     Max number of different atomic species (ntypx) = 10
     Max number of k-points (npk) =  40000
     Max angular momentum in pseudopotentials (lmaxx) =  4
     file O.pbe-n-kjpaw_psl.1.0.0.UPF: wavefunction(s)  2S 2P renormalized
     file H.pbe-kjpaw_psl.1.0.0.UPF: wavefunction(s)  1S renormalized
     Message from routine setup:
     using ibrav=0 with symmetry is DISCOURAGED, use correct ibrav instead

     R & G space division:  proc/nbgrp/npool/nimage =     128
     Subspace diagonalization in iterative solution of the eigenvalue problem:
     a serial algorithm will be used


     Parallelization info
     --------------------
     sticks:   dense  smooth     PW     G-vecs:    dense   smooth      PW
     Min         411     411    104                70949    70949    9060
     Max         412     412    105                70954    70954    9067
     Sum       52641   52641  13341              9081707  9081707 1160031

     Using Slab Decomposition



     bravais-lattice index     =            0
     lattice parameter (alat)  =      56.6918  a.u.
     unit-cell volume          =  182205.0314 (a.u.)^3
     number of atoms/cell      =            3
     number of atomic types    =            2
     number of electrons       =         8.00
     number of Kohn-Sham states=           25
     kinetic-energy cutoff     =      51.4490  Ry
     charge density cutoff     =     205.7961  Ry
     scf convergence threshold =      1.0E-06
     mixing beta               =       0.7000
     number of iterations used =            8  plain     mixing
     Exchange-correlation= SLA  PW   PBX  PBC
                           (   1   4   3   4   0   0   0)

     celldm(1)=  56.691784  celldm(2)=   0.000000  celldm(3)=   0.000000
     celldm(4)=   0.000000  celldm(5)=   0.000000  celldm(6)=   0.000000

     crystal axes: (cart. coord. in units of alat)
               a(1) = (   1.000000   0.000000   0.000000 )  
               a(2) = (   0.000000   1.000000   0.000000 )  
               a(3) = (   0.000000   0.000000   1.000000 )  

     reciprocal axes: (cart. coord. in units 2 pi/alat)
               b(1) = (  1.000000  0.000000  0.000000 )  
               b(2) = (  0.000000  1.000000  0.000000 )  
               b(3) = (  0.000000  0.000000  1.000000 )  


     PseudoPot. # 1 for O  read from file:
     ./O.pbe-n-kjpaw_psl.1.0.0.UPF
     MD5 check sum: e99d9cef9b487d1ca56f5b95ecd0fd7a
     Pseudo is Projector augmented-wave + core cor, Zval =  6.0
     Generated using &quot;atomic&quot; code by A. Dal Corso  v.6.3
     Shape of augmentation charge: PSQ
     Using radial grid of 1095 points,  4 beta functions with: 
                l(1) =   0
                l(2) =   0
                l(3) =   1
                l(4) =   1
     Q(r) pseudized with 0 coefficients 


     PseudoPot. # 2 for H  read from file:
     ./H.pbe-kjpaw_psl.1.0.0.UPF
     MD5 check sum: d81a744832360e4a8af0b0b5b123bc2a
     Pseudo is Projector augmented-wave, Zval =  1.0
     Generated using &quot;atomic&quot; code by A. Dal Corso  v.6.3MaX
     Shape of augmentation charge: PSQ
     Using radial grid of  929 points,  2 beta functions with: 
                l(1) =   0
                l(2) =   0
     Q(r) pseudized with 0 coefficients 


     atomic species   valence    mass     pseudopotential
        O              6.00    15.99900     O ( 1.00)
        H              1.00     1.00784     H ( 1.00)

      2 Sym. Ops. (no inversion) found



   Cartesian axes

     site n.     atom                  positions (alat units)
         1           O   tau(   1) = (   0.0000000   0.0000000   0.3133330  )
         2           H   tau(   2) = (   0.0000000   0.0319070   0.3133330  )
         3           H   tau(   3) = (   0.0000000   0.9920000   0.2824460  )

     number of k points=     8
                       cart. coord. in units 2pi/alat
        k(    1) = (   0.0000000   0.0000000   0.0000000), wk =   0.2222222
        k(    2) = (   0.0000000   0.3333333   0.0000000), wk =   0.2962963
        k(    3) = (   0.3333333   0.3333333   0.0000000), wk =   0.2962963
        k(    4) = (   0.3333333   0.0000000   0.0000000), wk =   0.2962963
        k(    5) = (   0.0000000   0.0000000   0.3333333), wk =   0.2962963
        k(    6) = (   0.0000000  -0.3333333   0.3333333), wk =   0.1481481
        k(    7) = (   0.0000000  -0.3333333  -0.3333333), wk =   0.1481481
        k(    8) = (  -0.3333333   0.0000000   0.3333333), wk =   0.2962963

     Dense  grid:  9081707 G-vectors     FFT dimensions: ( 270, 270, 270)

     Estimated max dynamical RAM per process >     138.58 MB

     Estimated total dynamical RAM >      16.02 GB

     Initial potential from superposition of free atoms

     starting charge       8.0000, renormalised to       8.0000

     negative rho (up, down):  3.679E-02 0.000E+00
     Starting wfcs are    6 randomized atomic wfcs +   19 random wfcs
     Checking if some PAW data can be deallocated... 

     total cpu time spent up to now is       14.3 secs

     per-process dynamical memory:   176.2 Mb

     Self-consistent Calculation

     iteration #  1     ecut=    51.45 Ry     beta= 0.70
     Davidson diagonalization with overlap
     ethr =  1.00E-02,  avg # of iterations =  5.9

     negative rho (up, down):  4.461E-02 0.000E+00

     total cpu time spent up to now is       33.8 secs

     total energy              =     -43.83654289 Ry
     estimated scf accuracy    <       0.46107930 Ry

     iteration #  2     ecut=    51.45 Ry     beta= 0.70
     Davidson diagonalization with overlap
     ethr =  5.76E-03,  avg # of iterations =  2.2

     negative rho (up, down):  3.813E-02 0.000E+00

     total cpu time spent up to now is       43.3 secs

     total energy              =     -43.97009799 Ry
     estimated scf accuracy    <       0.29347196 Ry

     iteration #  3     ecut=    51.45 Ry     beta= 0.70
     Davidson diagonalization with overlap
     ethr =  3.67E-03,  avg # of iterations =  2.0

     negative rho (up, down):  3.736E-02 0.000E+00

     total cpu time spent up to now is       52.4 secs

     total energy              =     -44.02600833 Ry
     estimated scf accuracy    <       0.00796674 Ry

     iteration #  4     ecut=    51.45 Ry     beta= 0.70
     Davidson diagonalization with overlap
     c_bands:  1 eigenvalues not converged
     c_bands:  1 eigenvalues not converged
     ethr =  9.96E-05,  avg # of iterations = 17.6

     negative rho (up, down):  3.886E-02 0.000E+00

     total cpu time spent up to now is       93.7 secs

     total energy              =     -44.03640209 Ry
     estimated scf accuracy    <       0.00545902 Ry

     iteration #  5     ecut=    51.45 Ry     beta= 0.70
     Davidson diagonalization with overlap
     ethr =  6.82E-05,  avg # of iterations =  2.8

     negative rho (up, down):  3.992E-02 0.000E+00

     total cpu time spent up to now is      104.0 secs

     total energy              =     -44.03650968 Ry
     estimated scf accuracy    <       0.00078392 Ry

     iteration #  6     ecut=    51.45 Ry     beta= 0.70
     Davidson diagonalization with overlap
     c_bands:  1 eigenvalues not converged
     c_bands:  4 eigenvalues not converged
     c_bands:  1 eigenvalues not converged
     c_bands:  3 eigenvalues not converged
     ethr =  9.80E-06,  avg # of iterations = 23.1

     negative rho (up, down):  4.013E-02 0.000E+00

     total cpu time spent up to now is      153.4 secs

     total energy              =     -44.03720689 Ry
     estimated scf accuracy    <       0.00041263 Ry

     iteration #  7     ecut=    51.45 Ry     beta= 0.70
     Davidson diagonalization with overlap
     ethr =  5.16E-06,  avg # of iterations =  5.9

     negative rho (up, down):  4.050E-02 0.000E+00

     total cpu time spent up to now is      165.7 secs

     total energy              =     -44.03719394 Ry
     estimated scf accuracy    <       0.00011564 Ry

     iteration #  8     ecut=    51.45 Ry     beta= 0.70
     Davidson diagonalization with overlap
     c_bands:  3 eigenvalues not converged
     ethr =  1.45E-06,  avg # of iterations = 14.5

     negative rho (up, down):  4.040E-02 0.000E+00

     total cpu time spent up to now is      186.0 secs

     total energy              =     -44.03723157 Ry
     estimated scf accuracy    <       0.00000151 Ry

     iteration #  9     ecut=    51.45 Ry     beta= 0.70
     Davidson diagonalization with overlap
     c_bands:  3 eigenvalues not converged
     ethr =  1.88E-08,  avg # of iterations =  6.9

     negative rho (up, down):  4.039E-02 0.000E+00

     total cpu time spent up to now is      198.1 secs

     End of self-consistent calculation

          k = 0.0000 0.0000 0.0000 (****** PWs)   bands (ev):

   -25.4433 -13.2120  -9.3113  -7.2512  -0.9568  -0.1636  -0.0470  -0.0112
    -0.0108  -0.0075  -0.0045   0.0320   0.1023   0.1379   0.1401   0.1541
     0.1566   0.1587   0.1600   0.1639   0.1681   0.1687   0.1722   0.2411
     0.3186

          k = 0.0000 0.3333 0.0000 (****** PWs)   bands (ev):

   -25.4433 -13.2120  -9.3113  -7.2512  -0.9568  -0.1486  -0.0970  -0.0114
     0.0063   0.0106   0.0194   0.0568   0.0652   0.0697   0.0768   0.1272
     0.1632   0.1710   0.1832   0.1926   0.2225   0.2324   0.2364   0.2547
     0.2785

          k = 0.3333 0.3333 0.0000 (****** PWs)   bands (ev):

   -25.4433 -13.2120  -9.3113  -7.2512  -0.9568  -0.1324  -0.0890  -0.0669
    -0.0269   0.0083   0.0397   0.0661   0.0791   0.0881   0.0991   0.1279
     0.1351   0.1441   0.1712   0.1883   0.2140   0.2530   0.2949   0.3036
     0.3114

          k = 0.3333 0.0000 0.0000 (****** PWs)   bands (ev):

   -25.4433 -13.2120  -9.3113  -7.2512  -0.9568  -0.1465  -0.0942  -0.0376
     0.0091   0.0115   0.0316   0.0603   0.0709   0.0761   0.0848   0.1228
     0.1391   0.1645   0.1742   0.2077   0.2297   0.2371   0.2444   0.2536
     0.2858

          k = 0.0000 0.0000 0.3333 (****** PWs)   bands (ev):

   -25.4433 -13.2120  -9.3113  -7.2512  -0.9568  -0.1477  -0.0963  -0.0192
     0.0058   0.0067   0.0258   0.0562   0.0669   0.0679   0.0845   0.1264
     0.1574   0.1693   0.1816   0.1982   0.2231   0.2354   0.2413   0.2465
     0.2804

          k = 0.0000-0.3333 0.3333 (****** PWs)   bands (ev):

   -25.4433 -13.2120  -9.3113  -7.2512  -0.9568  -0.1301  -0.1000  -0.0625
    -0.0218   0.0229   0.0381   0.0586   0.0811   0.0885   0.1009   0.1222
     0.1352   0.1444   0.1606   0.1690   0.2216   0.2640   0.2966   0.3026
     0.3035

          k = 0.0000-0.3333-0.3333 (****** PWs)   bands (ev):

   -25.4433 -13.2120  -9.3113  -7.2512  -0.9568  -0.1350  -0.0824  -0.0707
    -0.0335   0.0229   0.0417   0.0689   0.0744   0.0869   0.0957   0.1152
     0.1394   0.1433   0.1724   0.1901   0.2116   0.2477   0.2984   0.3118
     0.3224

          k =-0.3333 0.0000 0.3333 (****** PWs)   bands (ev):

   -25.4433 -13.2120  -9.3113  -7.2512  -0.9568  -0.1311  -0.0867  -0.0698
    -0.0270  -0.0016   0.0424   0.0666   0.0805   0.0880   0.1011   0.1310
     0.1367   0.1439   0.1718   0.1908   0.2140   0.2565   0.2909   0.2994
     0.3046

     highest occupied, lowest unoccupied level (ev):    -7.2512   -0.9568

!    total energy              =     -44.03723437 Ry
     total all-electron energy =      -152.884116 Ry
     estimated scf accuracy    <       0.00000011 Ry

     The total energy is the sum of the following terms:
     one-electron contribution =     -75.95812021 Ry
     hartree contribution      =      39.62069617 Ry
     xc contribution           =      -8.87811253 Ry
     ewald contribution        =      10.76527486 Ry
     one-center paw contrib.   =      -9.58697266 Ry

     convergence has been achieved in   9 iterations

     Writing all to output data dir ./water_Oright_Hleft.save/

     init_run     :     12.65s CPU     13.21s WALL (       1 calls)
     electrons    :    182.17s CPU    184.32s WALL (       1 calls)

     Called by init_run:
     wfcinit      :      3.17s CPU      3.34s WALL (       1 calls)
     potinit      :      0.54s CPU      0.60s WALL (       1 calls)
     hinit0       :      0.59s CPU      0.77s WALL (       1 calls)

     Called by electrons:
     c_bands      :    162.34s CPU    163.15s WALL (       9 calls)
     sum_band     :     15.56s CPU     15.90s WALL (       9 calls)
     v_of_rho     :      2.68s CPU      2.93s WALL (      10 calls)
     newd         :      0.90s CPU      1.24s WALL (      10 calls)
     PAW_pot      :      0.09s CPU      0.09s WALL (      10 calls)
     mix_rho      :      0.63s CPU      0.66s WALL (       9 calls)

     Called by c_bands:
     init_us_2    :      0.24s CPU      0.25s WALL (     152 calls)
     init_us_2:cp :      0.24s CPU      0.25s WALL (     152 calls)
     cegterg      :    161.57s CPU    162.12s WALL (      74 calls)

     Called by *egterg:
     cdiaghg      :      0.52s CPU      0.53s WALL (     721 calls)
     h_psi        :    134.82s CPU    135.22s WALL (     729 calls)
     s_psi        :      1.06s CPU      1.08s WALL (     729 calls)
     g_psi        :      0.30s CPU      0.30s WALL (     647 calls)

     Called by h_psi:
     h_psi:calbec :      2.05s CPU      2.06s WALL (     729 calls)
     vloc_psi     :    130.21s CPU    130.54s WALL (     729 calls)
     add_vuspsi   :      1.18s CPU      1.18s WALL (     729 calls)

     General routines
     calbec       :      2.28s CPU      2.30s WALL (     801 calls)
     fft          :      1.89s CPU      2.11s WALL (     110 calls)
     ffts         :      0.14s CPU      0.14s WALL (       9 calls)
     fftw         :    124.92s CPU    125.24s WALL (   21100 calls)

     Parallel routines

     PWSCF        :   3m18.51s CPU   3m25.58s WALL


   This run was terminated on:  20: 4:12  25Oct2022            

=------------------------------------------------------------------------------=
   JOB DONE.
=------------------------------------------------------------------------------=
