[1666305162.685832] [rustyamd2:2185492:0]       rdmacm_cm.c:917  UCX  ERROR rdma_create_event_channel failed: Operation not permitted

     Program PWSCF v.7.1 starts on 20Oct2022 at 18:32:42 
        Git branch: HEAD
        Last git commit: 564a7b486665e8dd0223d6e514b84195d1a96c10
        Last git commit date: Tue Jun 14 16:16:48 2022 +0000
        Last git commit subject: Merge branch 'update_version_number' into 'develop

     This program is part of the open-source Quantum ESPRESSO suite
     for quantum simulation of materials; please cite
         "P. Giannozzi et al., J. Phys.:Condens. Matter 21 395502 (2009);
         "P. Giannozzi et al., J. Phys.:Condens. Matter 29 465901 (2017);
         "P. Giannozzi et al., J. Chem. Phys. 152 154105 (2020);
          URL http://www.quantum-espresso.org", 
     in publications or presentations arising from this work. More details at
     http://www.quantum-espresso.org/quote

     Parallel version (MPI & OpenMP), running on       1 processor cores
     Number of MPI processes:                 1
     Threads/MPI process:                     1

     MPI processes distributed on     1 nodes
     448109 MiB available memory on the printing compute node when the environment starts

     Waiting for input...
     Reading input from standard input

     Current dimensions of program PWSCF are:
     Max number of different atomic species (ntypx) = 10
     Max number of k-points (npk) =  40000
     Max angular momentum in pseudopotentials (lmaxx) =  4
     file N.pbe-n-kjpaw_psl.1.0.0.UPF: wavefunction(s)  2S renormalized
     file O.pbe-n-kjpaw_psl.1.0.0.UPF: wavefunction(s)  2S 2P renormalized
     file H.pbe-kjpaw_psl.1.0.0.UPF: wavefunction(s)  1S renormalized
     Message from routine setup:
     using ibrav=0 with symmetry is DISCOURAGED, use correct ibrav instead

     Subspace diagonalization in iterative solution of the eigenvalue problem:
     a serial algorithm will be used


     G-vector sticks info
     --------------------
     sticks:   dense  smooth     PW     G-vecs:    dense   smooth      PW
     Sum        1271    1271    367               219497   219497   33629

     Using Slab Decomposition



     bravais-lattice index     =            0
     lattice parameter (alat)  =       9.4658  a.u.
     unit-cell volume          =    4399.1244 (a.u.)^3
     number of atoms/cell      =           11
     number of atomic types    =            4
     number of electrons       =        40.00
     number of Kohn-Sham states=           33
     kinetic-energy cutoff     =      51.4490  Ry
     charge density cutoff     =     205.7961  Ry
     scf convergence threshold =      1.0E-06
     mixing beta               =       0.7000
     number of iterations used =            8  plain     mixing
     Exchange-correlation= SLA  PW   PBX  PBC
                           (   1   4   3   4   0   0   0)

     celldm(1)=   9.465808  celldm(2)=   0.000000  celldm(3)=   0.000000
     celldm(4)=   0.000000  celldm(5)=   0.000000  celldm(6)=   0.000000

     crystal axes: (cart. coord. in units of alat)
               a(1) = (   1.000000   0.000000   0.000000 )  
               a(2) = (   0.000000   0.866026   0.000000 )  
               a(3) = (   0.000000   0.000000   5.989112 )  

     reciprocal axes: (cart. coord. in units 2 pi/alat)
               b(1) = (  1.000000  0.000000  0.000000 )  
               b(2) = (  0.000000  1.154700  0.000000 )  
               b(3) = (  0.000000  0.000000  0.166970 )  


     PseudoPot. # 1 for B  read from file:
     ./B.pbe-n-kjpaw_psl.1.0.0.UPF
     MD5 check sum: 8c825a5969375aca5c2c6ad5945b3059
     Pseudo is Projector augmented-wave + core cor, Zval =  3.0
     Generated using &quot;atomic&quot; code by A. Dal Corso  v.6.3
     Shape of augmentation charge: PSQ
     Using radial grid of 1059 points,  4 beta functions with: 
                l(1) =   0
                l(2) =   0
                l(3) =   1
                l(4) =   1
     Q(r) pseudized with 0 coefficients 


     PseudoPot. # 2 for N  read from file:
     ./N.pbe-n-kjpaw_psl.1.0.0.UPF
     MD5 check sum: 14c48229446f9f2d411169a3abcbc3fa
     Pseudo is Projector augmented-wave + core cor, Zval =  5.0
     Generated using &quot;atomic&quot; code by A. Dal Corso  v.6.3
     Shape of augmentation charge: PSQ
     Using radial grid of 1085 points,  4 beta functions with: 
                l(1) =   0
                l(2) =   0
                l(3) =   1
                l(4) =   1
     Q(r) pseudized with 0 coefficients 


     PseudoPot. # 3 for O  read from file:
     ./O.pbe-n-kjpaw_psl.1.0.0.UPF
     MD5 check sum: e99d9cef9b487d1ca56f5b95ecd0fd7a
     Pseudo is Projector augmented-wave + core cor, Zval =  6.0
     Generated using &quot;atomic&quot; code by A. Dal Corso  v.6.3
     Shape of augmentation charge: PSQ
     Using radial grid of 1095 points,  4 beta functions with: 
                l(1) =   0
                l(2) =   0
                l(3) =   1
                l(4) =   1
     Q(r) pseudized with 0 coefficients 


     PseudoPot. # 4 for H  read from file:
     ./H.pbe-kjpaw_psl.1.0.0.UPF
     MD5 check sum: d81a744832360e4a8af0b0b5b123bc2a
     Pseudo is Projector augmented-wave, Zval =  1.0
     Generated using &quot;atomic&quot; code by A. Dal Corso  v.6.3MaX
     Shape of augmentation charge: PSQ
     Using radial grid of  929 points,  2 beta functions with: 
                l(1) =   0
                l(2) =   0
     Q(r) pseudized with 0 coefficients 


     atomic species   valence    mass     pseudopotential
        B              3.00    10.81100     B ( 1.00)
        N              5.00    14.00670     N ( 1.00)
        O              6.00    15.99900     O ( 1.00)
        H              1.00     1.00784     H ( 1.00)

      2 Sym. Ops. (no inversion) found



   Cartesian axes

     site n.     atom                  positions (alat units)
         1           B   tau(   1) = (   0.7500000   0.1443379   1.1978224  )
         2           B   tau(   2) = (   0.2500000   0.1443379   1.1978224  )
         3           B   tau(   3) = (   0.0000000   0.5773507   1.1978224  )
         4           B   tau(   4) = (   0.5000000   0.5773507   1.1978224  )
         5           N   tau(   5) = (   0.7500000   0.7216877   1.1978224  )
         6           N   tau(   6) = (   0.2500000   0.7216877   1.1978224  )
         7           N   tau(   7) = (   0.0000000   0.2886749   1.1978224  )
         8           N   tau(   8) = (   0.5000000   0.2886749   1.1978224  )
         9           O   tau(   9) = (   0.0000000   0.0000000   1.8765864  )
        10           H   tau(  10) = (   0.0000000   0.1511154   1.7596250  )
        11           H   tau(  11) = (   0.0000000   0.7149102   1.7596250  )

     number of k points=     4
                       cart. coord. in units 2pi/alat
        k(    1) = (   0.0000000   0.0000000   0.0000000), wk =   0.5000000
        k(    2) = (   0.0000000  -0.5773502   0.0000000), wk =   0.5000000
        k(    3) = (  -0.5000000   0.0000000   0.0000000), wk =   0.5000000
        k(    4) = (  -0.5000000  -0.5773502   0.0000000), wk =   0.5000000

     Dense  grid:   219497 G-vectors     FFT dimensions: (  45,  40, 270)

     Estimated max dynamical RAM per process >     404.28 MB

     Check: negative core charge=   -0.000008

     Initial potential from superposition of free atoms

     starting charge      39.9988, renormalised to      40.0000

     negative rho (up, down):  4.688E-03 0.000E+00
     Starting wfcs are   38 randomized atomic wfcs
     Checking if some PAW data can be deallocated... 

     total cpu time spent up to now is        7.5 secs

     per-process dynamical memory:   211.6 Mb

     Self-consistent Calculation

     iteration #  1     ecut=    51.45 Ry     beta= 0.70
     Davidson diagonalization with overlap
     ethr =  1.00E-02,  avg # of iterations =  9.5

     negative rho (up, down):  8.844E-03 0.000E+00

     total cpu time spent up to now is       18.0 secs

     total energy              =    -202.73313444 Ry
     estimated scf accuracy    <       2.07808005 Ry

     iteration #  2     ecut=    51.45 Ry     beta= 0.70
     Davidson diagonalization with overlap
     ethr =  5.20E-03,  avg # of iterations =  5.2

     negative rho (up, down):  8.942E-03 0.000E+00

     total cpu time spent up to now is       26.1 secs

     total energy              =    -203.20685923 Ry
     estimated scf accuracy    <       1.25865939 Ry

     iteration #  3     ecut=    51.45 Ry     beta= 0.70
     Davidson diagonalization with overlap
     ethr =  3.15E-03,  avg # of iterations =  4.2

     negative rho (up, down):  1.043E-02 0.000E+00

     total cpu time spent up to now is       32.7 secs

     total energy              =    -203.43258264 Ry
     estimated scf accuracy    <       0.02084389 Ry

     iteration #  4     ecut=    51.45 Ry     beta= 0.70
     Davidson diagonalization with overlap
     ethr =  5.21E-05,  avg # of iterations = 12.0

     negative rho (up, down):  1.057E-02 0.000E+00

     total cpu time spent up to now is       46.7 secs

     total energy              =    -203.48345552 Ry
     estimated scf accuracy    <       0.10451651 Ry

     iteration #  5     ecut=    51.45 Ry     beta= 0.70
     Davidson diagonalization with overlap
     ethr =  5.21E-05,  avg # of iterations =  4.8

     negative rho (up, down):  1.117E-02 0.000E+00

     total cpu time spent up to now is       53.6 secs

     total energy              =    -203.47211973 Ry
     estimated scf accuracy    <       0.03223660 Ry

     iteration #  6     ecut=    51.45 Ry     beta= 0.70
     Davidson diagonalization with overlap
     ethr =  5.21E-05,  avg # of iterations =  4.5

     negative rho (up, down):  1.139E-02 0.000E+00

     total cpu time spent up to now is       60.4 secs

     total energy              =    -203.47912278 Ry
     estimated scf accuracy    <       0.00020276 Ry

     iteration #  7     ecut=    51.45 Ry     beta= 0.70
     Davidson diagonalization with overlap
     ethr =  5.07E-07,  avg # of iterations = 10.8

     negative rho (up, down):  1.143E-02 0.000E+00

     total cpu time spent up to now is       70.4 secs

     total energy              =    -203.47928419 Ry
     estimated scf accuracy    <       0.00011394 Ry

     iteration #  8     ecut=    51.45 Ry     beta= 0.70
     Davidson diagonalization with overlap
     ethr =  2.85E-07,  avg # of iterations =  2.5

     negative rho (up, down):  1.142E-02 0.000E+00

     total cpu time spent up to now is       76.5 secs

     total energy              =    -203.47928098 Ry
     estimated scf accuracy    <       0.00004273 Ry

     iteration #  9     ecut=    51.45 Ry     beta= 0.70
     Davidson diagonalization with overlap
     ethr =  1.07E-07,  avg # of iterations =  4.5

     negative rho (up, down):  1.142E-02 0.000E+00

     total cpu time spent up to now is       83.2 secs

     total energy              =    -203.47928329 Ry
     estimated scf accuracy    <       0.00000681 Ry

     iteration # 10     ecut=    51.45 Ry     beta= 0.70
     Davidson diagonalization with overlap
     ethr =  1.70E-08,  avg # of iterations =  5.0

     negative rho (up, down):  1.142E-02 0.000E+00

     total cpu time spent up to now is       90.3 secs

     End of self-consistent calculation

          k = 0.0000 0.0000 0.0000 ( 27515 PWs)   bands (ev):

   -24.1751 -23.2144 -20.2579 -20.2416 -20.1224 -14.4426 -13.1554 -13.1474
   -11.8721 -11.4300 -11.4216 -10.8211  -9.6814  -7.9939  -6.8734  -6.8692
    -6.6726  -6.6605  -6.4407  -5.8863  -1.0677  -0.7400  -0.1747   0.1829
     0.1977   0.5276   1.0765   1.4728   2.0071   2.2523   3.1648   3.4220
     3.9989

          k = 0.0000-0.5774 0.0000 ( 27418 PWs)   bands (ev):

   -24.1604 -22.0688 -22.0555 -20.1321 -20.1195 -14.4427 -14.4391 -12.0511
   -10.6449 -10.6348  -9.6848  -9.6814  -9.2773  -9.2308  -8.5006  -8.4900
    -7.9072  -6.4575  -6.4530  -5.8530  -0.7696  -0.7466   0.8205   1.1260
     1.6293   1.8703   2.4450   2.4620   3.0084   3.0113   3.3917   3.4433
     3.5516

          k =-0.5000 0.0000 0.0000 ( 27494 PWs)   bands (ev):

   -24.1736 -22.3587 -22.3163 -19.6813 -19.6423 -13.7737 -13.7345 -12.1191
   -12.1064 -11.8639  -9.7157  -9.7050  -9.6749  -9.5755  -8.4991  -8.4726
    -7.9366  -5.9929  -5.7627  -5.6939  -0.8347  -0.7337   0.0178   0.7657
     1.1087   1.6365   1.9740   2.0589   2.5428   2.5701   2.9576   2.9630
     3.4023

          k =-0.5000-0.5774 0.0000 ( 27340 PWs)   bands (ev):

   -24.1594 -21.3282 -21.2866 -21.2739 -21.2570 -12.0633 -12.0225 -12.0108
   -11.9911 -11.9864  -9.7588  -9.7449  -9.7294  -9.7159  -8.3790  -8.2089
    -8.1393  -8.1146  -7.7485  -5.9343   1.3783   1.6803   1.7168   1.7900
     2.0381   2.4193   2.4771   2.7212   3.4275   3.5531   3.6191   3.7475
     4.0574

     highest occupied, lowest unoccupied level (ev):    -5.6939   -1.0677

!    total energy              =    -203.47928569 Ry
     total all-electron energy =      -790.478749 Ry
     estimated scf accuracy    <       0.00000017 Ry

     The total energy is the sum of the following terms:
     one-electron contribution =   -1854.20120017 Ry
     hartree contribution      =     934.49627812 Ry
     xc contribution           =     -44.18119409 Ry
     ewald contribution        =     822.71451836 Ry
     one-center paw contrib.   =     -62.30768790 Ry

     convergence has been achieved in  10 iterations

     Writing all to output data dir ./hBN_water_Oup_Hdown.save/

     init_run     :      7.13s CPU      7.28s WALL (       1 calls)
     electrons    :     82.02s CPU     82.85s WALL (       1 calls)

     Called by init_run:
     wfcinit      :      2.36s CPU      2.41s WALL (       1 calls)
     potinit      :      1.82s CPU      1.84s WALL (       1 calls)
     hinit0       :      2.74s CPU      2.78s WALL (       1 calls)

     Called by electrons:
     c_bands      :     65.26s CPU     65.38s WALL (      10 calls)
     sum_band     :     10.35s CPU     10.71s WALL (      10 calls)
     v_of_rho     :      2.39s CPU      2.41s WALL (      11 calls)
     newd         :      1.57s CPU      1.91s WALL (      11 calls)
     PAW_pot      :      2.73s CPU      2.75s WALL (      11 calls)
     mix_rho      :      0.27s CPU      0.28s WALL (      10 calls)

     Called by c_bands:
     init_us_2    :      0.61s CPU      0.63s WALL (      84 calls)
     init_us_2:cp :      0.61s CPU      0.63s WALL (      84 calls)
     cegterg      :     64.18s CPU     64.28s WALL (      40 calls)

     Called by *egterg:
     cdiaghg      :      0.31s CPU      0.31s WALL (     292 calls)
     h_psi        :     51.74s CPU     51.81s WALL (     296 calls)
     s_psi        :      2.72s CPU      2.75s WALL (     296 calls)
     g_psi        :      0.23s CPU      0.23s WALL (     252 calls)

     Called by h_psi:
     h_psi:calbec :      2.47s CPU      2.48s WALL (     296 calls)
     vloc_psi     :     46.33s CPU     46.38s WALL (     296 calls)
     add_vuspsi   :      2.74s CPU      2.74s WALL (     296 calls)

     General routines
     calbec       :      3.14s CPU      3.15s WALL (     336 calls)
     fft          :      0.65s CPU      0.67s WALL (     121 calls)
     ffts         :      0.05s CPU      0.05s WALL (      10 calls)
     fftw         :     49.89s CPU     49.94s WALL (    9446 calls)

     Parallel routines

     PWSCF        :   1m29.36s CPU   1m30.48s WALL


   This run was terminated on:  18:34:13  20Oct2022            

=------------------------------------------------------------------------------=
   JOB DONE.
=------------------------------------------------------------------------------=
