
     Program PWSCF v.7.1 starts on 25Oct2022 at 20: 0:45 
        Git branch: HEAD
        Last git commit: 564a7b486665e8dd0223d6e514b84195d1a96c10
        Last git commit date: Tue Jun 14 16:16:48 2022 +0000
        Last git commit subject: Merge branch 'update_version_number' into 'develop

     This program is part of the open-source Quantum ESPRESSO suite
     for quantum simulation of materials; please cite
         "P. Giannozzi et al., J. Phys.:Condens. Matter 21 395502 (2009);
         "P. Giannozzi et al., J. Phys.:Condens. Matter 29 465901 (2017);
         "P. Giannozzi et al., J. Chem. Phys. 152 154105 (2020);
          URL http://www.quantum-espresso.org", 
     in publications or presentations arising from this work. More details at
     http://www.quantum-espresso.org/quote

     Parallel version (MPI & OpenMP), running on     128 processor cores
     Number of MPI processes:               128
     Threads/MPI process:                     1

     MPI processes distributed on     1 nodes
     990561 MiB available memory on the printing compute node when the environment starts

     Reading input from scf.in

     Current dimensions of program PWSCF are:
     Max number of different atomic species (ntypx) = 10
     Max number of k-points (npk) =  40000
     Max angular momentum in pseudopotentials (lmaxx) =  4
     file N.pbe-n-kjpaw_psl.1.0.0.UPF: wavefunction(s)  2S renormalized
     file O.pbe-n-kjpaw_psl.1.0.0.UPF: wavefunction(s)  2S 2P renormalized
     file H.pbe-kjpaw_psl.1.0.0.UPF: wavefunction(s)  1S renormalized
     Message from routine setup:
     using ibrav=0 with symmetry is DISCOURAGED, use correct ibrav instead

     R & G space division:  proc/nbgrp/npool/nimage =     128
     Subspace diagonalization in iterative solution of the eigenvalue problem:
     one sub-group per band group will be used
     scalapack distributed-memory algorithm (size of sub-group: 10* 10 procs)


     Parallelization info
     --------------------
     sticks:   dense  smooth     PW     G-vecs:    dense   smooth      PW
     Min         635     635    160               109655   109655   13948
     Max         636     636    161               109660   109660   13955
     Sum       81311   81311  20563             14036177 14036177 1785661

     Using Slab Decomposition



     bravais-lattice index     =            0
     lattice parameter (alat)  =      75.7265  a.u.
     unit-cell volume          =  281543.9584 (a.u.)^3
     number of atoms/cell      =          515
     number of atomic types    =            4
     number of electrons       =      2056.00
     number of Kohn-Sham states=         1049
     kinetic-energy cutoff     =      51.4490  Ry
     charge density cutoff     =     205.7961  Ry
     scf convergence threshold =      1.0E-06
     mixing beta               =       0.7000
     number of iterations used =            8  plain     mixing
     Exchange-correlation= SLA  PW   PBX  PBC
                           (   1   4   3   4   0   0   0)

     celldm(1)=  75.726466  celldm(2)=   0.000000  celldm(3)=   0.000000
     celldm(4)=   0.000000  celldm(5)=   0.000000  celldm(6)=   0.000000

     crystal axes: (cart. coord. in units of alat)
               a(1) = (   1.000000   0.000000   0.000000 )  
               a(2) = (   0.000000   0.866026   0.000000 )  
               a(3) = (   0.000000   0.000000   0.748639 )  

     reciprocal axes: (cart. coord. in units 2 pi/alat)
               b(1) = (  1.000000  0.000000  0.000000 )  
               b(2) = (  0.000000  1.154700  0.000000 )  
               b(3) = (  0.000000  0.000000  1.335757 )  


     PseudoPot. # 1 for B  read from file:
     ./B.pbe-n-kjpaw_psl.1.0.0.UPF
     MD5 check sum: 8c825a5969375aca5c2c6ad5945b3059
     Pseudo is Projector augmented-wave + core cor, Zval =  3.0
     Generated using &quot;atomic&quot; code by A. Dal Corso  v.6.3
     Shape of augmentation charge: PSQ
     Using radial grid of 1059 points,  4 beta functions with: 
                l(1) =   0
                l(2) =   0
                l(3) =   1
                l(4) =   1
     Q(r) pseudized with 0 coefficients 


     PseudoPot. # 2 for N  read from file:
     ./N.pbe-n-kjpaw_psl.1.0.0.UPF
     MD5 check sum: 14c48229446f9f2d411169a3abcbc3fa
     Pseudo is Projector augmented-wave + core cor, Zval =  5.0
     Generated using &quot;atomic&quot; code by A. Dal Corso  v.6.3
     Shape of augmentation charge: PSQ
     Using radial grid of 1085 points,  4 beta functions with: 
                l(1) =   0
                l(2) =   0
                l(3) =   1
                l(4) =   1
     Q(r) pseudized with 0 coefficients 


     PseudoPot. # 3 for O  read from file:
     ./O.pbe-n-kjpaw_psl.1.0.0.UPF
     MD5 check sum: e99d9cef9b487d1ca56f5b95ecd0fd7a
     Pseudo is Projector augmented-wave + core cor, Zval =  6.0
     Generated using &quot;atomic&quot; code by A. Dal Corso  v.6.3
     Shape of augmentation charge: PSQ
     Using radial grid of 1095 points,  4 beta functions with: 
                l(1) =   0
                l(2) =   0
                l(3) =   1
                l(4) =   1
     Q(r) pseudized with 0 coefficients 


     PseudoPot. # 4 for H  read from file:
     ./H.pbe-kjpaw_psl.1.0.0.UPF
     MD5 check sum: d81a744832360e4a8af0b0b5b123bc2a
     Pseudo is Projector augmented-wave, Zval =  1.0
     Generated using &quot;atomic&quot; code by A. Dal Corso  v.6.3MaX
     Shape of augmentation charge: PSQ
     Using radial grid of  929 points,  2 beta functions with: 
                l(1) =   0
                l(2) =   0
     Q(r) pseudized with 0 coefficients 


     atomic species   valence    mass     pseudopotential
        B              3.00    10.81100     B ( 1.00)
        N              5.00    14.00670     N ( 1.00)
        O              6.00    15.99900     O ( 1.00)
        H              1.00     1.00784     H ( 1.00)

      2 Sym. Ops. (no inversion) found ( 1 have fractional translation)



   Cartesian axes

     site n.     atom                  positions (alat units)
         1           B   tau(   1) = (   0.9687500   0.0180422   0.1497278  )
         2           B   tau(   2) = (   0.9687500   0.1262954   0.1497278  )
         3           B   tau(   3) = (   0.9687500   0.2345486   0.1497278  )
         4           B   tau(   4) = (   0.9687500   0.3428018   0.1497278  )
         5           B   tau(   5) = (   0.9687500   0.4510550   0.1497278  )
         6           B   tau(   6) = (   0.9687500   0.5593082   0.1497278  )
         7           B   tau(   7) = (   0.9687500   0.6675614   0.1497278  )
         8           B   tau(   8) = (   0.9687500   0.7758146   0.1497278  )
         9           B   tau(   9) = (   0.0937500   0.0180422   0.1497278  )
        10           B   tau(  10) = (   0.0937500   0.1262954   0.1497278  )
        11           B   tau(  11) = (   0.0937500   0.2345486   0.1497278  )
        12           B   tau(  12) = (   0.0937500   0.3428018   0.1497278  )
        13           B   tau(  13) = (   0.0937500   0.4510550   0.1497278  )
        14           B   tau(  14) = (   0.0937500   0.5593082   0.1497278  )
        15           B   tau(  15) = (   0.0937500   0.6675614   0.1497278  )
        16           B   tau(  16) = (   0.0937500   0.7758146   0.1497278  )
        17           B   tau(  17) = (   0.2187500   0.0180422   0.1497278  )
        18           B   tau(  18) = (   0.2187500   0.1262954   0.1497278  )
        19           B   tau(  19) = (   0.2187500   0.2345486   0.1497278  )
        20           B   tau(  20) = (   0.2187500   0.3428018   0.1497278  )
        21           B   tau(  21) = (   0.2187500   0.4510550   0.1497278  )
        22           B   tau(  22) = (   0.2187500   0.5593082   0.1497278  )
        23           B   tau(  23) = (   0.2187500   0.6675614   0.1497278  )
        24           B   tau(  24) = (   0.2187500   0.7758146   0.1497278  )
        25           B   tau(  25) = (   0.3437500   0.0180422   0.1497278  )
        26           B   tau(  26) = (   0.3437500   0.1262954   0.1497278  )
        27           B   tau(  27) = (   0.3437500   0.2345486   0.1497278  )
        28           B   tau(  28) = (   0.3437500   0.3428018   0.1497278  )
        29           B   tau(  29) = (   0.3437500   0.4510550   0.1497278  )
        30           B   tau(  30) = (   0.3437500   0.5593082   0.1497278  )
        31           B   tau(  31) = (   0.3437500   0.6675614   0.1497278  )
        32           B   tau(  32) = (   0.3437500   0.7758146   0.1497278  )
        33           B   tau(  33) = (   0.4687500   0.0180422   0.1497278  )
        34           B   tau(  34) = (   0.4687500   0.1262954   0.1497278  )
        35           B   tau(  35) = (   0.4687500   0.2345486   0.1497278  )
        36           B   tau(  36) = (   0.4687500   0.3428018   0.1497278  )
        37           B   tau(  37) = (   0.4687500   0.4510550   0.1497278  )
        38           B   tau(  38) = (   0.4687500   0.5593082   0.1497278  )
        39           B   tau(  39) = (   0.4687500   0.6675614   0.1497278  )
        40           B   tau(  40) = (   0.4687500   0.7758146   0.1497278  )
        41           B   tau(  41) = (   0.5937500   0.0180422   0.1497278  )
        42           B   tau(  42) = (   0.5937500   0.1262954   0.1497278  )
        43           B   tau(  43) = (   0.5937500   0.2345486   0.1497278  )
        44           B   tau(  44) = (   0.5937500   0.3428018   0.1497278  )
        45           B   tau(  45) = (   0.5937500   0.4510550   0.1497278  )
        46           B   tau(  46) = (   0.5937500   0.5593082   0.1497278  )
        47           B   tau(  47) = (   0.5937500   0.6675614   0.1497278  )
        48           B   tau(  48) = (   0.5937500   0.7758146   0.1497278  )
        49           B   tau(  49) = (   0.7187500   0.0180422   0.1497278  )
        50           B   tau(  50) = (   0.7187500   0.1262954   0.1497278  )
        51           B   tau(  51) = (   0.7187500   0.2345486   0.1497278  )
        52           B   tau(  52) = (   0.7187500   0.3428018   0.1497278  )
        53           B   tau(  53) = (   0.7187500   0.4510550   0.1497278  )
        54           B   tau(  54) = (   0.7187500   0.5593082   0.1497278  )
        55           B   tau(  55) = (   0.7187500   0.6675614   0.1497278  )
        56           B   tau(  56) = (   0.7187500   0.7758146   0.1497278  )
        57           B   tau(  57) = (   0.8437500   0.0180422   0.1497278  )
        58           B   tau(  58) = (   0.8437500   0.1262954   0.1497278  )
        59           B   tau(  59) = (   0.8437500   0.2345486   0.1497278  )
        60           B   tau(  60) = (   0.8437500   0.3428018   0.1497278  )
        61           B   tau(  61) = (   0.8437500   0.4510550   0.1497278  )
        62           B   tau(  62) = (   0.8437500   0.5593082   0.1497278  )
        63           B   tau(  63) = (   0.8437500   0.6675614   0.1497278  )
        64           B   tau(  64) = (   0.8437500   0.7758146   0.1497278  )
        65           B   tau(  65) = (   0.0312500   0.0180422   0.1497278  )
        66           B   tau(  66) = (   0.0312500   0.1262954   0.1497278  )
        67           B   tau(  67) = (   0.0312500   0.2345486   0.1497278  )
        68           B   tau(  68) = (   0.0312500   0.3428018   0.1497278  )
        69           B   tau(  69) = (   0.0312500   0.4510550   0.1497278  )
        70           B   tau(  70) = (   0.0312500   0.5593082   0.1497278  )
        71           B   tau(  71) = (   0.0312500   0.6675614   0.1497278  )
        72           B   tau(  72) = (   0.0312500   0.7758146   0.1497278  )
        73           B   tau(  73) = (   0.1562500   0.0180422   0.1497278  )
        74           B   tau(  74) = (   0.1562500   0.1262954   0.1497278  )
        75           B   tau(  75) = (   0.1562500   0.2345486   0.1497278  )
        76           B   tau(  76) = (   0.1562500   0.3428018   0.1497278  )
        77           B   tau(  77) = (   0.1562500   0.4510550   0.1497278  )
        78           B   tau(  78) = (   0.1562500   0.5593082   0.1497278  )
        79           B   tau(  79) = (   0.1562500   0.6675614   0.1497278  )
        80           B   tau(  80) = (   0.1562500   0.7758146   0.1497278  )
        81           B   tau(  81) = (   0.2812500   0.0180422   0.1497278  )
        82           B   tau(  82) = (   0.2812500   0.1262954   0.1497278  )
        83           B   tau(  83) = (   0.2812500   0.2345486   0.1497278  )
        84           B   tau(  84) = (   0.2812500   0.3428018   0.1497278  )
        85           B   tau(  85) = (   0.2812500   0.4510550   0.1497278  )
        86           B   tau(  86) = (   0.2812500   0.5593082   0.1497278  )
        87           B   tau(  87) = (   0.2812500   0.6675614   0.1497278  )
        88           B   tau(  88) = (   0.2812500   0.7758146   0.1497278  )
        89           B   tau(  89) = (   0.4062500   0.0180422   0.1497278  )
        90           B   tau(  90) = (   0.4062500   0.1262954   0.1497278  )
        91           B   tau(  91) = (   0.4062500   0.2345486   0.1497278  )
        92           B   tau(  92) = (   0.4062500   0.3428018   0.1497278  )
        93           B   tau(  93) = (   0.4062500   0.4510550   0.1497278  )
        94           B   tau(  94) = (   0.4062500   0.5593082   0.1497278  )
        95           B   tau(  95) = (   0.4062500   0.6675614   0.1497278  )
        96           B   tau(  96) = (   0.4062500   0.7758146   0.1497278  )
        97           B   tau(  97) = (   0.5312500   0.0180422   0.1497278  )
        98           B   tau(  98) = (   0.5312500   0.1262954   0.1497278  )
        99           B   tau(  99) = (   0.5312500   0.2345486   0.1497278  )
       100           B   tau( 100) = (   0.5312500   0.3428018   0.1497278  )
       101           B   tau( 101) = (   0.5312500   0.4510550   0.1497278  )
       102           B   tau( 102) = (   0.5312500   0.5593082   0.1497278  )
       103           B   tau( 103) = (   0.5312500   0.6675614   0.1497278  )
       104           B   tau( 104) = (   0.5312500   0.7758146   0.1497278  )
       105           B   tau( 105) = (   0.6562500   0.0180422   0.1497278  )
       106           B   tau( 106) = (   0.6562500   0.1262954   0.1497278  )
       107           B   tau( 107) = (   0.6562500   0.2345486   0.1497278  )
       108           B   tau( 108) = (   0.6562500   0.3428018   0.1497278  )
       109           B   tau( 109) = (   0.6562500   0.4510550   0.1497278  )
       110           B   tau( 110) = (   0.6562500   0.5593082   0.1497278  )
       111           B   tau( 111) = (   0.6562500   0.6675614   0.1497278  )
       112           B   tau( 112) = (   0.6562500   0.7758146   0.1497278  )
       113           B   tau( 113) = (   0.7812500   0.0180422   0.1497278  )
       114           B   tau( 114) = (   0.7812500   0.1262954   0.1497278  )
       115           B   tau( 115) = (   0.7812500   0.2345486   0.1497278  )
       116           B   tau( 116) = (   0.7812500   0.3428018   0.1497278  )
       117           B   tau( 117) = (   0.7812500   0.4510550   0.1497278  )
       118           B   tau( 118) = (   0.7812500   0.5593082   0.1497278  )
       119           B   tau( 119) = (   0.7812500   0.6675614   0.1497278  )
       120           B   tau( 120) = (   0.7812500   0.7758146   0.1497278  )
       121           B   tau( 121) = (   0.9062500   0.0180422   0.1497278  )
       122           B   tau( 122) = (   0.9062500   0.1262954   0.1497278  )
       123           B   tau( 123) = (   0.9062500   0.2345486   0.1497278  )
       124           B   tau( 124) = (   0.9062500   0.3428018   0.1497278  )
       125           B   tau( 125) = (   0.9062500   0.4510550   0.1497278  )
       126           B   tau( 126) = (   0.9062500   0.5593082   0.1497278  )
       127           B   tau( 127) = (   0.9062500   0.6675614   0.1497278  )
       128           B   tau( 128) = (   0.9062500   0.7758146   0.1497278  )
       129           B   tau( 129) = (   0.0000000   0.8299412   0.1497278  )
       130           B   tau( 130) = (   0.0000000   0.0721688   0.1497278  )
       131           B   tau( 131) = (   0.0000000   0.1804220   0.1497278  )
       132           B   tau( 132) = (   0.0000000   0.2886752   0.1497278  )
       133           B   tau( 133) = (   0.0000000   0.3969284   0.1497278  )
       134           B   tau( 134) = (   0.0000000   0.5051816   0.1497278  )
       135           B   tau( 135) = (   0.0000000   0.6134348   0.1497278  )
       136           B   tau( 136) = (   0.0000000   0.7216880   0.1497278  )
       137           B   tau( 137) = (   0.1250000   0.8299412   0.1497278  )
       138           B   tau( 138) = (   0.1250000   0.0721688   0.1497278  )
       139           B   tau( 139) = (   0.1250000   0.1804220   0.1497278  )
       140           B   tau( 140) = (   0.1250000   0.2886752   0.1497278  )
       141           B   tau( 141) = (   0.1250000   0.3969284   0.1497278  )
       142           B   tau( 142) = (   0.1250000   0.5051816   0.1497278  )
       143           B   tau( 143) = (   0.1250000   0.6134348   0.1497278  )
       144           B   tau( 144) = (   0.1250000   0.7216880   0.1497278  )
       145           B   tau( 145) = (   0.2500000   0.8299412   0.1497278  )
       146           B   tau( 146) = (   0.2500000   0.0721688   0.1497278  )
       147           B   tau( 147) = (   0.2500000   0.1804220   0.1497278  )
       148           B   tau( 148) = (   0.2500000   0.2886752   0.1497278  )
       149           B   tau( 149) = (   0.2500000   0.3969284   0.1497278  )
       150           B   tau( 150) = (   0.2500000   0.5051816   0.1497278  )
       151           B   tau( 151) = (   0.2500000   0.6134348   0.1497278  )
       152           B   tau( 152) = (   0.2500000   0.7216880   0.1497278  )
       153           B   tau( 153) = (   0.3750000   0.8299412   0.1497278  )
       154           B   tau( 154) = (   0.3750000   0.0721688   0.1497278  )
       155           B   tau( 155) = (   0.3750000   0.1804220   0.1497278  )
       156           B   tau( 156) = (   0.3750000   0.2886752   0.1497278  )
       157           B   tau( 157) = (   0.3750000   0.3969284   0.1497278  )
       158           B   tau( 158) = (   0.3750000   0.5051816   0.1497278  )
       159           B   tau( 159) = (   0.3750000   0.6134348   0.1497278  )
       160           B   tau( 160) = (   0.3750000   0.7216880   0.1497278  )
       161           B   tau( 161) = (   0.5000000   0.8299412   0.1497278  )
       162           B   tau( 162) = (   0.5000000   0.0721688   0.1497278  )
       163           B   tau( 163) = (   0.5000000   0.1804220   0.1497278  )
       164           B   tau( 164) = (   0.5000000   0.2886752   0.1497278  )
       165           B   tau( 165) = (   0.5000000   0.3969284   0.1497278  )
       166           B   tau( 166) = (   0.5000000   0.5051816   0.1497278  )
       167           B   tau( 167) = (   0.5000000   0.6134348   0.1497278  )
       168           B   tau( 168) = (   0.5000000   0.7216880   0.1497278  )
       169           B   tau( 169) = (   0.6250000   0.8299412   0.1497278  )
       170           B   tau( 170) = (   0.6250000   0.0721688   0.1497278  )
       171           B   tau( 171) = (   0.6250000   0.1804220   0.1497278  )
       172           B   tau( 172) = (   0.6250000   0.2886752   0.1497278  )
       173           B   tau( 173) = (   0.6250000   0.3969284   0.1497278  )
       174           B   tau( 174) = (   0.6250000   0.5051816   0.1497278  )
       175           B   tau( 175) = (   0.6250000   0.6134348   0.1497278  )
       176           B   tau( 176) = (   0.6250000   0.7216880   0.1497278  )
       177           B   tau( 177) = (   0.7500000   0.8299412   0.1497278  )
       178           B   tau( 178) = (   0.7500000   0.0721688   0.1497278  )
       179           B   tau( 179) = (   0.7500000   0.1804220   0.1497278  )
       180           B   tau( 180) = (   0.7500000   0.2886752   0.1497278  )
       181           B   tau( 181) = (   0.7500000   0.3969284   0.1497278  )
       182           B   tau( 182) = (   0.7500000   0.5051816   0.1497278  )
       183           B   tau( 183) = (   0.7500000   0.6134348   0.1497278  )
       184           B   tau( 184) = (   0.7500000   0.7216880   0.1497278  )
       185           B   tau( 185) = (   0.8750000   0.8299412   0.1497278  )
       186           B   tau( 186) = (   0.8750000   0.0721688   0.1497278  )
       187           B   tau( 187) = (   0.8750000   0.1804220   0.1497278  )
       188           B   tau( 188) = (   0.8750000   0.2886752   0.1497278  )
       189           B   tau( 189) = (   0.8750000   0.3969284   0.1497278  )
       190           B   tau( 190) = (   0.8750000   0.5051816   0.1497278  )
       191           B   tau( 191) = (   0.8750000   0.6134348   0.1497278  )
       192           B   tau( 192) = (   0.8750000   0.7216880   0.1497278  )
       193           B   tau( 193) = (   0.0625000   0.8299412   0.1497278  )
       194           B   tau( 194) = (   0.0625000   0.0721688   0.1497278  )
       195           B   tau( 195) = (   0.0625000   0.1804220   0.1497278  )
       196           B   tau( 196) = (   0.0625000   0.2886752   0.1497278  )
       197           B   tau( 197) = (   0.0625000   0.3969284   0.1497278  )
       198           B   tau( 198) = (   0.0625000   0.5051816   0.1497278  )
       199           B   tau( 199) = (   0.0625000   0.6134348   0.1497278  )
       200           B   tau( 200) = (   0.0625000   0.7216880   0.1497278  )
       201           B   tau( 201) = (   0.1875000   0.8299412   0.1497278  )
       202           B   tau( 202) = (   0.1875000   0.0721688   0.1497278  )
       203           B   tau( 203) = (   0.1875000   0.1804220   0.1497278  )
       204           B   tau( 204) = (   0.1875000   0.2886752   0.1497278  )
       205           B   tau( 205) = (   0.1875000   0.3969284   0.1497278  )
       206           B   tau( 206) = (   0.1875000   0.5051816   0.1497278  )
       207           B   tau( 207) = (   0.1875000   0.6134348   0.1497278  )
       208           B   tau( 208) = (   0.1875000   0.7216880   0.1497278  )
       209           B   tau( 209) = (   0.3125000   0.8299412   0.1497278  )
       210           B   tau( 210) = (   0.3125000   0.0721688   0.1497278  )
       211           B   tau( 211) = (   0.3125000   0.1804220   0.1497278  )
       212           B   tau( 212) = (   0.3125000   0.2886752   0.1497278  )
       213           B   tau( 213) = (   0.3125000   0.3969284   0.1497278  )
       214           B   tau( 214) = (   0.3125000   0.5051816   0.1497278  )
       215           B   tau( 215) = (   0.3125000   0.6134348   0.1497278  )
       216           B   tau( 216) = (   0.3125000   0.7216880   0.1497278  )
       217           B   tau( 217) = (   0.4375000   0.8299412   0.1497278  )
       218           B   tau( 218) = (   0.4375000   0.0721688   0.1497278  )
       219           B   tau( 219) = (   0.4375000   0.1804220   0.1497278  )
       220           B   tau( 220) = (   0.4375000   0.2886752   0.1497278  )
       221           B   tau( 221) = (   0.4375000   0.3969284   0.1497278  )
       222           B   tau( 222) = (   0.4375000   0.5051816   0.1497278  )
       223           B   tau( 223) = (   0.4375000   0.6134348   0.1497278  )
       224           B   tau( 224) = (   0.4375000   0.7216880   0.1497278  )
       225           B   tau( 225) = (   0.5625000   0.8299412   0.1497278  )
       226           B   tau( 226) = (   0.5625000   0.0721688   0.1497278  )
       227           B   tau( 227) = (   0.5625000   0.1804220   0.1497278  )
       228           B   tau( 228) = (   0.5625000   0.2886752   0.1497278  )
       229           B   tau( 229) = (   0.5625000   0.3969284   0.1497278  )
       230           B   tau( 230) = (   0.5625000   0.5051816   0.1497278  )
       231           B   tau( 231) = (   0.5625000   0.6134348   0.1497278  )
       232           B   tau( 232) = (   0.5625000   0.7216880   0.1497278  )
       233           B   tau( 233) = (   0.6875000   0.8299412   0.1497278  )
       234           B   tau( 234) = (   0.6875000   0.0721688   0.1497278  )
       235           B   tau( 235) = (   0.6875000   0.1804220   0.1497278  )
       236           B   tau( 236) = (   0.6875000   0.2886752   0.1497278  )
       237           B   tau( 237) = (   0.6875000   0.3969284   0.1497278  )
       238           B   tau( 238) = (   0.6875000   0.5051816   0.1497278  )
       239           B   tau( 239) = (   0.6875000   0.6134348   0.1497278  )
       240           B   tau( 240) = (   0.6875000   0.7216880   0.1497278  )
       241           B   tau( 241) = (   0.8125000   0.8299412   0.1497278  )
       242           B   tau( 242) = (   0.8125000   0.0721688   0.1497278  )
       243           B   tau( 243) = (   0.8125000   0.1804220   0.1497278  )
       244           B   tau( 244) = (   0.8125000   0.2886752   0.1497278  )
       245           B   tau( 245) = (   0.8125000   0.3969284   0.1497278  )
       246           B   tau( 246) = (   0.8125000   0.5051816   0.1497278  )
       247           B   tau( 247) = (   0.8125000   0.6134348   0.1497278  )
       248           B   tau( 248) = (   0.8125000   0.7216880   0.1497278  )
       249           B   tau( 249) = (   0.9375000   0.8299412   0.1497278  )
       250           B   tau( 250) = (   0.9375000   0.0721688   0.1497278  )
       251           B   tau( 251) = (   0.9375000   0.1804220   0.1497278  )
       252           B   tau( 252) = (   0.9375000   0.2886752   0.1497278  )
       253           B   tau( 253) = (   0.9375000   0.3969284   0.1497278  )
       254           B   tau( 254) = (   0.9375000   0.5051816   0.1497278  )
       255           B   tau( 255) = (   0.9375000   0.6134348   0.1497278  )
       256           B   tau( 256) = (   0.9375000   0.7216880   0.1497278  )
       257           N   tau( 257) = (   0.9687500   0.8479833   0.1497278  )
       258           N   tau( 258) = (   0.9687500   0.0902110   0.1497278  )
       259           N   tau( 259) = (   0.9687500   0.1984642   0.1497278  )
       260           N   tau( 260) = (   0.9687500   0.3067174   0.1497278  )
       261           N   tau( 261) = (   0.9687500   0.4149705   0.1497278  )
       262           N   tau( 262) = (   0.9687500   0.5232237   0.1497278  )
       263           N   tau( 263) = (   0.9687500   0.6314769   0.1497278  )
       264           N   tau( 264) = (   0.9687500   0.7397301   0.1497278  )
       265           N   tau( 265) = (   0.0937500   0.8479833   0.1497278  )
       266           N   tau( 266) = (   0.0937500   0.0902110   0.1497278  )
       267           N   tau( 267) = (   0.0937500   0.1984642   0.1497278  )
       268           N   tau( 268) = (   0.0937500   0.3067174   0.1497278  )
       269           N   tau( 269) = (   0.0937500   0.4149705   0.1497278  )
       270           N   tau( 270) = (   0.0937500   0.5232237   0.1497278  )
       271           N   tau( 271) = (   0.0937500   0.6314769   0.1497278  )
       272           N   tau( 272) = (   0.0937500   0.7397301   0.1497278  )
       273           N   tau( 273) = (   0.2187500   0.8479833   0.1497278  )
       274           N   tau( 274) = (   0.2187500   0.0902110   0.1497278  )
       275           N   tau( 275) = (   0.2187500   0.1984642   0.1497278  )
       276           N   tau( 276) = (   0.2187500   0.3067174   0.1497278  )
       277           N   tau( 277) = (   0.2187500   0.4149705   0.1497278  )
       278           N   tau( 278) = (   0.2187500   0.5232237   0.1497278  )
       279           N   tau( 279) = (   0.2187500   0.6314769   0.1497278  )
       280           N   tau( 280) = (   0.2187500   0.7397301   0.1497278  )
       281           N   tau( 281) = (   0.3437500   0.8479833   0.1497278  )
       282           N   tau( 282) = (   0.3437500   0.0902110   0.1497278  )
       283           N   tau( 283) = (   0.3437500   0.1984642   0.1497278  )
       284           N   tau( 284) = (   0.3437500   0.3067174   0.1497278  )
       285           N   tau( 285) = (   0.3437500   0.4149705   0.1497278  )
       286           N   tau( 286) = (   0.3437500   0.5232237   0.1497278  )
       287           N   tau( 287) = (   0.3437500   0.6314769   0.1497278  )
       288           N   tau( 288) = (   0.3437500   0.7397301   0.1497278  )
       289           N   tau( 289) = (   0.4687500   0.8479833   0.1497278  )
       290           N   tau( 290) = (   0.4687500   0.0902110   0.1497278  )
       291           N   tau( 291) = (   0.4687500   0.1984642   0.1497278  )
       292           N   tau( 292) = (   0.4687500   0.3067174   0.1497278  )
       293           N   tau( 293) = (   0.4687500   0.4149705   0.1497278  )
       294           N   tau( 294) = (   0.4687500   0.5232237   0.1497278  )
       295           N   tau( 295) = (   0.4687500   0.6314769   0.1497278  )
       296           N   tau( 296) = (   0.4687500   0.7397301   0.1497278  )
       297           N   tau( 297) = (   0.5937500   0.8479833   0.1497278  )
       298           N   tau( 298) = (   0.5937500   0.0902110   0.1497278  )
       299           N   tau( 299) = (   0.5937500   0.1984642   0.1497278  )
       300           N   tau( 300) = (   0.5937500   0.3067174   0.1497278  )
       301           N   tau( 301) = (   0.5937500   0.4149705   0.1497278  )
       302           N   tau( 302) = (   0.5937500   0.5232237   0.1497278  )
       303           N   tau( 303) = (   0.5937500   0.6314769   0.1497278  )
       304           N   tau( 304) = (   0.5937500   0.7397301   0.1497278  )
       305           N   tau( 305) = (   0.7187500   0.8479833   0.1497278  )
       306           N   tau( 306) = (   0.7187500   0.0902110   0.1497278  )
       307           N   tau( 307) = (   0.7187500   0.1984642   0.1497278  )
       308           N   tau( 308) = (   0.7187500   0.3067174   0.1497278  )
       309           N   tau( 309) = (   0.7187500   0.4149705   0.1497278  )
       310           N   tau( 310) = (   0.7187500   0.5232237   0.1497278  )
       311           N   tau( 311) = (   0.7187500   0.6314769   0.1497278  )
       312           N   tau( 312) = (   0.7187500   0.7397301   0.1497278  )
       313           N   tau( 313) = (   0.8437500   0.8479833   0.1497278  )
       314           N   tau( 314) = (   0.8437500   0.0902110   0.1497278  )
       315           N   tau( 315) = (   0.8437500   0.1984642   0.1497278  )
       316           N   tau( 316) = (   0.8437500   0.3067174   0.1497278  )
       317           N   tau( 317) = (   0.8437500   0.4149705   0.1497278  )
       318           N   tau( 318) = (   0.8437500   0.5232237   0.1497278  )
       319           N   tau( 319) = (   0.8437500   0.6314769   0.1497278  )
       320           N   tau( 320) = (   0.8437500   0.7397301   0.1497278  )
       321           N   tau( 321) = (   0.0312500   0.8479833   0.1497278  )
       322           N   tau( 322) = (   0.0312500   0.0902110   0.1497278  )
       323           N   tau( 323) = (   0.0312500   0.1984642   0.1497278  )
       324           N   tau( 324) = (   0.0312500   0.3067174   0.1497278  )
       325           N   tau( 325) = (   0.0312500   0.4149705   0.1497278  )
       326           N   tau( 326) = (   0.0312500   0.5232237   0.1497278  )
       327           N   tau( 327) = (   0.0312500   0.6314769   0.1497278  )
       328           N   tau( 328) = (   0.0312500   0.7397301   0.1497278  )
       329           N   tau( 329) = (   0.1562500   0.8479833   0.1497278  )
       330           N   tau( 330) = (   0.1562500   0.0902110   0.1497278  )
       331           N   tau( 331) = (   0.1562500   0.1984642   0.1497278  )
       332           N   tau( 332) = (   0.1562500   0.3067174   0.1497278  )
       333           N   tau( 333) = (   0.1562500   0.4149705   0.1497278  )
       334           N   tau( 334) = (   0.1562500   0.5232237   0.1497278  )
       335           N   tau( 335) = (   0.1562500   0.6314769   0.1497278  )
       336           N   tau( 336) = (   0.1562500   0.7397301   0.1497278  )
       337           N   tau( 337) = (   0.2812500   0.8479833   0.1497278  )
       338           N   tau( 338) = (   0.2812500   0.0902110   0.1497278  )
       339           N   tau( 339) = (   0.2812500   0.1984642   0.1497278  )
       340           N   tau( 340) = (   0.2812500   0.3067174   0.1497278  )
       341           N   tau( 341) = (   0.2812500   0.4149705   0.1497278  )
       342           N   tau( 342) = (   0.2812500   0.5232237   0.1497278  )
       343           N   tau( 343) = (   0.2812500   0.6314769   0.1497278  )
       344           N   tau( 344) = (   0.2812500   0.7397301   0.1497278  )
       345           N   tau( 345) = (   0.4062500   0.8479833   0.1497278  )
       346           N   tau( 346) = (   0.4062500   0.0902110   0.1497278  )
       347           N   tau( 347) = (   0.4062500   0.1984642   0.1497278  )
       348           N   tau( 348) = (   0.4062500   0.3067174   0.1497278  )
       349           N   tau( 349) = (   0.4062500   0.4149705   0.1497278  )
       350           N   tau( 350) = (   0.4062500   0.5232237   0.1497278  )
       351           N   tau( 351) = (   0.4062500   0.6314769   0.1497278  )
       352           N   tau( 352) = (   0.4062500   0.7397301   0.1497278  )
       353           N   tau( 353) = (   0.5312500   0.8479833   0.1497278  )
       354           N   tau( 354) = (   0.5312500   0.0902110   0.1497278  )
       355           N   tau( 355) = (   0.5312500   0.1984642   0.1497278  )
       356           N   tau( 356) = (   0.5312500   0.3067174   0.1497278  )
       357           N   tau( 357) = (   0.5312500   0.4149705   0.1497278  )
       358           N   tau( 358) = (   0.5312500   0.5232237   0.1497278  )
       359           N   tau( 359) = (   0.5312500   0.6314769   0.1497278  )
       360           N   tau( 360) = (   0.5312500   0.7397301   0.1497278  )
       361           N   tau( 361) = (   0.6562500   0.8479833   0.1497278  )
       362           N   tau( 362) = (   0.6562500   0.0902110   0.1497278  )
       363           N   tau( 363) = (   0.6562500   0.1984642   0.1497278  )
       364           N   tau( 364) = (   0.6562500   0.3067174   0.1497278  )
       365           N   tau( 365) = (   0.6562500   0.4149705   0.1497278  )
       366           N   tau( 366) = (   0.6562500   0.5232237   0.1497278  )
       367           N   tau( 367) = (   0.6562500   0.6314769   0.1497278  )
       368           N   tau( 368) = (   0.6562500   0.7397301   0.1497278  )
       369           N   tau( 369) = (   0.7812500   0.8479833   0.1497278  )
       370           N   tau( 370) = (   0.7812500   0.0902110   0.1497278  )
       371           N   tau( 371) = (   0.7812500   0.1984642   0.1497278  )
       372           N   tau( 372) = (   0.7812500   0.3067174   0.1497278  )
       373           N   tau( 373) = (   0.7812500   0.4149705   0.1497278  )
       374           N   tau( 374) = (   0.7812500   0.5232237   0.1497278  )
       375           N   tau( 375) = (   0.7812500   0.6314769   0.1497278  )
       376           N   tau( 376) = (   0.7812500   0.7397301   0.1497278  )
       377           N   tau( 377) = (   0.9062500   0.8479833   0.1497278  )
       378           N   tau( 378) = (   0.9062500   0.0902110   0.1497278  )
       379           N   tau( 379) = (   0.9062500   0.1984642   0.1497278  )
       380           N   tau( 380) = (   0.9062500   0.3067174   0.1497278  )
       381           N   tau( 381) = (   0.9062500   0.4149705   0.1497278  )
       382           N   tau( 382) = (   0.9062500   0.5232237   0.1497278  )
       383           N   tau( 383) = (   0.9062500   0.6314769   0.1497278  )
       384           N   tau( 384) = (   0.9062500   0.7397301   0.1497278  )
       385           N   tau( 385) = (   0.0000000   0.0360844   0.1497278  )
       386           N   tau( 386) = (   0.0000000   0.1443376   0.1497278  )
       387           N   tau( 387) = (   0.0000000   0.2525908   0.1497278  )
       388           N   tau( 388) = (   0.0000000   0.3608439   0.1497278  )
       389           N   tau( 389) = (   0.0000000   0.4690971   0.1497278  )
       390           N   tau( 390) = (   0.0000000   0.5773503   0.1497278  )
       391           N   tau( 391) = (   0.0000000   0.6856035   0.1497278  )
       392           N   tau( 392) = (   0.0000000   0.7938567   0.1497278  )
       393           N   tau( 393) = (   0.1250000   0.0360844   0.1497278  )
       394           N   tau( 394) = (   0.1250000   0.1443376   0.1497278  )
       395           N   tau( 395) = (   0.1250000   0.2525908   0.1497278  )
       396           N   tau( 396) = (   0.1250000   0.3608439   0.1497278  )
       397           N   tau( 397) = (   0.1250000   0.4690971   0.1497278  )
       398           N   tau( 398) = (   0.1250000   0.5773503   0.1497278  )
       399           N   tau( 399) = (   0.1250000   0.6856035   0.1497278  )
       400           N   tau( 400) = (   0.1250000   0.7938567   0.1497278  )
       401           N   tau( 401) = (   0.2500000   0.0360844   0.1497278  )
       402           N   tau( 402) = (   0.2500000   0.1443376   0.1497278  )
       403           N   tau( 403) = (   0.2500000   0.2525908   0.1497278  )
       404           N   tau( 404) = (   0.2500000   0.3608439   0.1497278  )
       405           N   tau( 405) = (   0.2500000   0.4690971   0.1497278  )
       406           N   tau( 406) = (   0.2500000   0.5773503   0.1497278  )
       407           N   tau( 407) = (   0.2500000   0.6856035   0.1497278  )
       408           N   tau( 408) = (   0.2500000   0.7938567   0.1497278  )
       409           N   tau( 409) = (   0.3750000   0.0360844   0.1497278  )
       410           N   tau( 410) = (   0.3750000   0.1443376   0.1497278  )
       411           N   tau( 411) = (   0.3750000   0.2525908   0.1497278  )
       412           N   tau( 412) = (   0.3750000   0.3608439   0.1497278  )
       413           N   tau( 413) = (   0.3750000   0.4690971   0.1497278  )
       414           N   tau( 414) = (   0.3750000   0.5773503   0.1497278  )
       415           N   tau( 415) = (   0.3750000   0.6856035   0.1497278  )
       416           N   tau( 416) = (   0.3750000   0.7938567   0.1497278  )
       417           N   tau( 417) = (   0.5000000   0.0360844   0.1497278  )
       418           N   tau( 418) = (   0.5000000   0.1443376   0.1497278  )
       419           N   tau( 419) = (   0.5000000   0.2525908   0.1497278  )
       420           N   tau( 420) = (   0.5000000   0.3608439   0.1497278  )
       421           N   tau( 421) = (   0.5000000   0.4690971   0.1497278  )
       422           N   tau( 422) = (   0.5000000   0.5773503   0.1497278  )
       423           N   tau( 423) = (   0.5000000   0.6856035   0.1497278  )
       424           N   tau( 424) = (   0.5000000   0.7938567   0.1497278  )
       425           N   tau( 425) = (   0.6250000   0.0360844   0.1497278  )
       426           N   tau( 426) = (   0.6250000   0.1443376   0.1497278  )
       427           N   tau( 427) = (   0.6250000   0.2525908   0.1497278  )
       428           N   tau( 428) = (   0.6250000   0.3608439   0.1497278  )
       429           N   tau( 429) = (   0.6250000   0.4690971   0.1497278  )
       430           N   tau( 430) = (   0.6250000   0.5773503   0.1497278  )
       431           N   tau( 431) = (   0.6250000   0.6856035   0.1497278  )
       432           N   tau( 432) = (   0.6250000   0.7938567   0.1497278  )
       433           N   tau( 433) = (   0.7500000   0.0360844   0.1497278  )
       434           N   tau( 434) = (   0.7500000   0.1443376   0.1497278  )
       435           N   tau( 435) = (   0.7500000   0.2525908   0.1497278  )
       436           N   tau( 436) = (   0.7500000   0.3608439   0.1497278  )
       437           N   tau( 437) = (   0.7500000   0.4690971   0.1497278  )
       438           N   tau( 438) = (   0.7500000   0.5773503   0.1497278  )
       439           N   tau( 439) = (   0.7500000   0.6856035   0.1497278  )
       440           N   tau( 440) = (   0.7500000   0.7938567   0.1497278  )
       441           N   tau( 441) = (   0.8750000   0.0360844   0.1497278  )
       442           N   tau( 442) = (   0.8750000   0.1443376   0.1497278  )
       443           N   tau( 443) = (   0.8750000   0.2525908   0.1497278  )
       444           N   tau( 444) = (   0.8750000   0.3608439   0.1497278  )
       445           N   tau( 445) = (   0.8750000   0.4690971   0.1497278  )
       446           N   tau( 446) = (   0.8750000   0.5773503   0.1497278  )
       447           N   tau( 447) = (   0.8750000   0.6856035   0.1497278  )
       448           N   tau( 448) = (   0.8750000   0.7938567   0.1497278  )
       449           N   tau( 449) = (   0.0625000   0.0360844   0.1497278  )
       450           N   tau( 450) = (   0.0625000   0.1443376   0.1497278  )
       451           N   tau( 451) = (   0.0625000   0.2525908   0.1497278  )
       452           N   tau( 452) = (   0.0625000   0.3608439   0.1497278  )
       453           N   tau( 453) = (   0.0625000   0.4690971   0.1497278  )
       454           N   tau( 454) = (   0.0625000   0.5773503   0.1497278  )
       455           N   tau( 455) = (   0.0625000   0.6856035   0.1497278  )
       456           N   tau( 456) = (   0.0625000   0.7938567   0.1497278  )
       457           N   tau( 457) = (   0.1875000   0.0360844   0.1497278  )
       458           N   tau( 458) = (   0.1875000   0.1443376   0.1497278  )
       459           N   tau( 459) = (   0.1875000   0.2525908   0.1497278  )
       460           N   tau( 460) = (   0.1875000   0.3608439   0.1497278  )
       461           N   tau( 461) = (   0.1875000   0.4690971   0.1497278  )
       462           N   tau( 462) = (   0.1875000   0.5773503   0.1497278  )
       463           N   tau( 463) = (   0.1875000   0.6856035   0.1497278  )
       464           N   tau( 464) = (   0.1875000   0.7938567   0.1497278  )
       465           N   tau( 465) = (   0.3125000   0.0360844   0.1497278  )
       466           N   tau( 466) = (   0.3125000   0.1443376   0.1497278  )
       467           N   tau( 467) = (   0.3125000   0.2525908   0.1497278  )
       468           N   tau( 468) = (   0.3125000   0.3608439   0.1497278  )
       469           N   tau( 469) = (   0.3125000   0.4690971   0.1497278  )
       470           N   tau( 470) = (   0.3125000   0.5773503   0.1497278  )
       471           N   tau( 471) = (   0.3125000   0.6856035   0.1497278  )
       472           N   tau( 472) = (   0.3125000   0.7938567   0.1497278  )
       473           N   tau( 473) = (   0.4375000   0.0360844   0.1497278  )
       474           N   tau( 474) = (   0.4375000   0.1443376   0.1497278  )
       475           N   tau( 475) = (   0.4375000   0.2525908   0.1497278  )
       476           N   tau( 476) = (   0.4375000   0.3608439   0.1497278  )
       477           N   tau( 477) = (   0.4375000   0.4690971   0.1497278  )
       478           N   tau( 478) = (   0.4375000   0.5773503   0.1497278  )
       479           N   tau( 479) = (   0.4375000   0.6856035   0.1497278  )
       480           N   tau( 480) = (   0.4375000   0.7938567   0.1497278  )
       481           N   tau( 481) = (   0.5625000   0.0360844   0.1497278  )
       482           N   tau( 482) = (   0.5625000   0.1443376   0.1497278  )
       483           N   tau( 483) = (   0.5625000   0.2525908   0.1497278  )
       484           N   tau( 484) = (   0.5625000   0.3608439   0.1497278  )
       485           N   tau( 485) = (   0.5625000   0.4690971   0.1497278  )
       486           N   tau( 486) = (   0.5625000   0.5773503   0.1497278  )
       487           N   tau( 487) = (   0.5625000   0.6856035   0.1497278  )
       488           N   tau( 488) = (   0.5625000   0.7938567   0.1497278  )
       489           N   tau( 489) = (   0.6875000   0.0360844   0.1497278  )
       490           N   tau( 490) = (   0.6875000   0.1443376   0.1497278  )
       491           N   tau( 491) = (   0.6875000   0.2525908   0.1497278  )
       492           N   tau( 492) = (   0.6875000   0.3608439   0.1497278  )
       493           N   tau( 493) = (   0.6875000   0.4690971   0.1497278  )
       494           N   tau( 494) = (   0.6875000   0.5773503   0.1497278  )
       495           N   tau( 495) = (   0.6875000   0.6856035   0.1497278  )
       496           N   tau( 496) = (   0.6875000   0.7938567   0.1497278  )
       497           N   tau( 497) = (   0.8125000   0.0360844   0.1497278  )
       498           N   tau( 498) = (   0.8125000   0.1443376   0.1497278  )
       499           N   tau( 499) = (   0.8125000   0.2525908   0.1497278  )
       500           N   tau( 500) = (   0.8125000   0.3608439   0.1497278  )
       501           N   tau( 501) = (   0.8125000   0.4690971   0.1497278  )
       502           N   tau( 502) = (   0.8125000   0.5773503   0.1497278  )
       503           N   tau( 503) = (   0.8125000   0.6856035   0.1497278  )
       504           N   tau( 504) = (   0.8125000   0.7938567   0.1497278  )
       505           N   tau( 505) = (   0.9375000   0.0360844   0.1497278  )
       506           N   tau( 506) = (   0.9375000   0.1443376   0.1497278  )
       507           N   tau( 507) = (   0.9375000   0.2525908   0.1497278  )
       508           N   tau( 508) = (   0.9375000   0.3608439   0.1497278  )
       509           N   tau( 509) = (   0.9375000   0.4690971   0.1497278  )
       510           N   tau( 510) = (   0.9375000   0.5773503   0.1497278  )
       511           N   tau( 511) = (   0.9375000   0.6856035   0.1497278  )
       512           N   tau( 512) = (   0.9375000   0.7938567   0.1497278  )
       513           O   tau( 513) = (   0.3750000   0.3247596   0.2620236  )
       514           H   tau( 514) = (   0.3750000   0.3436490   0.2474035  )
       515           H   tau( 515) = (   0.3750000   0.3058702   0.2474035  )

     number of k points=     4
                       cart. coord. in units 2pi/alat
        k(    1) = (   0.0000000   0.0000000   0.0000000), wk =   0.2222222
        k(    2) = (   0.0000000   0.3849001   0.0000000), wk =   0.4444444
        k(    3) = (   0.3333333   0.0000000   0.0000000), wk =   0.4444444
        k(    4) = (   0.3333333   0.3849001   0.0000000), wk =   0.8888889

     Dense  grid: 14036177 G-vectors     FFT dimensions: ( 360, 300, 270)

     Estimated max dynamical RAM per process >       3.34 GB

     Estimated total dynamical RAM >     427.44 GB

     Check: negative core charge=   -0.000007

     Initial potential from superposition of free atoms

     starting charge    2055.9258, renormalised to    2056.0000

     negative rho (up, down):  2.267E-01 0.000E+00
     Starting wfcs are 2054 randomized atomic wfcs
     Checking if some PAW data can be deallocated... 

     total cpu time spent up to now is      816.8 secs

     Self-consistent Calculation

     iteration #  1     ecut=    51.45 Ry     beta= 0.70
     Davidson diagonalization with overlap
     ethr =  1.00E-02,  avg # of iterations =  3.0

     negative rho (up, down):  5.909E-01 0.000E+00

     total cpu time spent up to now is     2557.6 secs

     total energy              =  -10210.28448277 Ry
     estimated scf accuracy    <     109.09240885 Ry

     iteration #  2     ecut=    51.45 Ry     beta= 0.70
     Davidson diagonalization with overlap
     ethr =  5.31E-03,  avg # of iterations =  3.5

     negative rho (up, down):  6.451E-01 0.000E+00

     total cpu time spent up to now is     4387.4 secs

     total energy              =  -10242.17319420 Ry
     estimated scf accuracy    <      47.78006591 Ry

     iteration #  3     ecut=    51.45 Ry     beta= 0.70
     Davidson diagonalization with overlap
     ethr =  2.32E-03,  avg # of iterations =  2.5

     negative rho (up, down):  7.775E-01 0.000E+00

     total cpu time spent up to now is     5919.9 secs

     total energy              =  -10248.40680273 Ry
     estimated scf accuracy    <       1.19839654 Ry

     iteration #  4     ecut=    51.45 Ry     beta= 0.70
     Davidson diagonalization with overlap
     ethr =  5.83E-05,  avg # of iterations =  6.2

     negative rho (up, down):  7.842E-01 0.000E+00

     total cpu time spent up to now is     8046.8 secs

     total energy              =  -10249.31911246 Ry
     estimated scf accuracy    <       1.51801533 Ry

     iteration #  5     ecut=    51.45 Ry     beta= 0.70
     Davidson diagonalization with overlap
     ethr =  5.83E-05,  avg # of iterations =  5.0

     negative rho (up, down):  7.904E-01 0.000E+00

     total cpu time spent up to now is     9286.4 secs

     total energy              =  -10249.27686409 Ry
     estimated scf accuracy    <       0.38032292 Ry

     iteration #  6     ecut=    51.45 Ry     beta= 0.70
     Davidson diagonalization with overlap
     ethr =  1.85E-05,  avg # of iterations =  2.0

     negative rho (up, down):  8.076E-01 0.000E+00

     total cpu time spent up to now is    10685.6 secs

     total energy              =  -10249.32481097 Ry
     estimated scf accuracy    <       0.02870236 Ry

     iteration #  7     ecut=    51.45 Ry     beta= 0.70
     Davidson diagonalization with overlap
     c_bands:  5 eigenvalues not converged
     c_bands:  1 eigenvalues not converged
     c_bands:  2 eigenvalues not converged
     c_bands:  1 eigenvalues not converged
     ethr =  1.40E-06,  avg # of iterations = 55.0

     negative rho (up, down):  8.080E-01 0.000E+00

     total cpu time spent up to now is    15001.5 secs

     total energy              =  -10249.33045789 Ry
     estimated scf accuracy    <       0.00082670 Ry

     iteration #  8     ecut=    51.45 Ry     beta= 0.70
     Davidson diagonalization with overlap
     c_bands:  2 eigenvalues not converged
     c_bands:  1 eigenvalues not converged
     ethr =  4.02E-08,  avg # of iterations = 17.5

     negative rho (up, down):  8.081E-01 0.000E+00

     total cpu time spent up to now is    17301.0 secs

     total energy              =  -10249.33071959 Ry
     estimated scf accuracy    <       0.00005012 Ry

     iteration #  9     ecut=    51.45 Ry     beta= 0.70
     Davidson diagonalization with overlap
     ethr =  2.44E-09,  avg # of iterations =  7.2

     negative rho (up, down):  8.081E-01 0.000E+00

     total cpu time spent up to now is    18837.9 secs

     total energy              =  -10249.33071065 Ry
     estimated scf accuracy    <       0.00005647 Ry

     iteration # 10     ecut=    51.45 Ry     beta= 0.70
     Davidson diagonalization with overlap
     ethr =  2.44E-09,  avg # of iterations =  4.0

     negative rho (up, down):  8.081E-01 0.000E+00

     total cpu time spent up to now is    20059.2 secs

     total energy              =  -10249.33070889 Ry
     estimated scf accuracy    <       0.00001099 Ry

     iteration # 11     ecut=    51.45 Ry     beta= 0.70
     Davidson diagonalization with overlap
     ethr =  5.34E-10,  avg # of iterations =  5.0

     negative rho (up, down):  8.081E-01 0.000E+00

     total cpu time spent up to now is    21885.1 secs

     End of self-consistent calculation

          k = 0.0000 0.0000 0.0000 (****** PWs)   bands (ev):

   -24.2093 -22.3329 -22.2783 -22.2695 -22.2535 -22.2531 -22.2003 -22.1968
   -22.1948 -22.1936 -22.1048 -22.1034 -22.0358 -22.0335 -22.0298 -22.0279
   -22.0273 -22.0266 -21.9756 -21.9753 -21.9715 -21.9710 -21.8289 -21.8282
   -21.8104 -21.8101 -21.8091 -21.8086 -21.7561 -21.7557 -21.7535 -21.7534
   -21.6671 -21.6671 -21.6129 -21.6129 -21.6085 -21.6084 -21.5407 -21.5405
   -21.5403 -21.5401 -21.4528 -21.4519 -21.4517 -21.4512 -21.4504 -21.4503
   -21.3829 -21.3823 -21.3803 -21.3799 -21.1929 -21.1928 -21.1919 -21.1918
   -21.1774 -21.1773 -21.1749 -21.1748 -21.1746 -21.1743 -21.1253 -21.1252
   -21.1210 -21.1210 -20.9883 -20.9882 -20.9717 -20.9717 -20.9704 -20.9704
   -20.9236 -20.9235 -20.9211 -20.9211 -20.8429 -20.8427 -20.8423 -20.8422
   -20.7317 -20.7315 -20.7314 -20.7314 -20.7251 -20.7250 -20.7246 -20.7246
   -20.5941 -20.5940 -20.5447 -20.5446 -20.5405 -20.5405 -20.4585 -20.4585
   -20.4265 -20.4264 -20.4261 -20.4260 -20.4033 -20.4031 -20.4021 -20.4019
   -20.4016 -20.4015 -20.3993 -20.3993 -20.3987 -20.3986 -20.3982 -20.3981
   -20.2358 -20.2357 -20.2355 -20.2355 -20.1752 -20.1751 -20.1747 -20.1747
   -20.0274 -20.0273 -20.0268 -20.0268 -19.9797 -19.9791 -19.9770 -19.9770
   -19.9762 -19.9762 -19.9341 -19.9335 -19.9302 -19.9293 -19.8985 -19.8984
   -19.8868 -19.8867 -19.8862 -19.8861 -19.8556 -19.8556 -19.8535 -19.8535
   -19.8046 -19.8040 -19.8034 -19.8026 -19.7354 -19.7353 -19.7350 -19.7349
   -19.6534 -19.6533 -19.6515 -19.6515 -19.6055 -19.6050 -19.6049 -19.6044
   -19.5744 -19.5744 -19.5739 -19.5739 -19.5591 -19.5591 -19.5571 -19.5571
   -19.4647 -19.4585 -19.4218 -19.4178 -19.4167 -19.4153 -19.3680 -19.3679
   -19.3652 -19.3641 -19.3640 -19.3639 -19.3620 -19.3616 -19.3548 -19.3548
   -19.3463 -19.3463 -19.3460 -19.3459 -19.3083 -19.3080 -19.3077 -19.3068
   -19.3065 -19.3054 -19.3035 -19.3030 -19.3028 -19.3028 -19.3024 -19.3023
   -19.2634 -19.2633 -19.2594 -19.2594 -19.2443 -19.2400 -19.2400 -19.2055
   -19.2024 -19.1735 -19.1735 -19.1724 -19.1723 -19.1391 -19.1384 -19.1352
   -19.1351 -19.1319 -19.1318 -19.1316 -19.1316 -19.0983 -19.0976 -19.0400
   -19.0400 -19.0396 -19.0396 -18.9932 -18.9932 -18.9928 -18.9928 -18.9662
   -18.9661 -18.9611 -18.9611 -18.9509 -18.9502 -18.9439 -18.9434 -18.9399
   -18.9397 -18.9377 -18.9377 -18.8033 -18.8032 -18.7972 -18.7971 -18.7785
   -18.7782 -18.7765 -18.7763 -18.7757 -18.7757 -18.7025 -18.7025 -18.6678
   -18.6678 -13.5521 -13.5505 -13.5505 -13.5055 -13.5010 -13.4336 -13.4336
   -13.4279 -13.4279 -13.4133 -13.4133 -13.4128 -13.4127 -13.3701 -13.3684
   -13.3439 -13.3438 -13.3394 -13.3393 -13.2504 -13.2502 -13.2499 -13.2497
   -13.2117 -13.2069 -13.1695 -13.1659 -13.1647 -13.1633 -13.1493 -13.1492
   -13.0793 -13.0792 -13.0787 -13.0786 -13.0519 -13.0518 -13.0514 -13.0508
   -13.0505 -13.0500 -13.0488 -13.0484 -13.0484 -13.0481 -13.0478 -13.0476
   -13.0164 -13.0164 -13.0151 -13.0151 -12.8805 -12.8805 -12.8771 -12.8768
   -12.8746 -12.8742 -12.8707 -12.8706 -12.8606 -12.8603 -12.8587 -12.8586
   -12.8579 -12.8577 -12.7809 -12.7809 -12.7798 -12.7797 -12.6925 -12.6918
   -12.6887 -12.6883 -12.6723 -12.6722 -12.6711 -12.6710 -12.6487 -12.6487
   -12.6484 -12.6484 -12.6291 -12.6291 -12.6022 -12.6022 -12.5958 -12.5958
   -12.5583 -12.5582 -12.5564 -12.5563 -12.5105 -12.5103 -12.5099 -12.5096
   -12.4137 -12.4137 -12.4135 -12.4134 -12.3199 -12.3197 -12.3157 -12.3157
   -12.3151 -12.3151 -12.2899 -12.2894 -12.2875 -12.2867 -12.2628 -12.2625
   -12.2624 -12.2620 -12.2618 -12.2618 -12.2232 -12.2227 -12.2224 -12.2217
   -12.1638 -12.1636 -12.1632 -12.1630 -11.9907 -11.9907 -11.9904 -11.9904
   -11.9788 -11.9462 -11.9462 -11.9437 -11.9437 -11.7760 -11.7760 -11.7250
   -11.7249 -11.7248 -11.7246 -11.7226 -11.7225 -11.7220 -11.7220 -11.6722
   -11.6722 -11.6361 -11.6361 -11.4249 -11.4249 -11.4247 -11.4247 -11.4104
   -11.4104 -11.4085 -11.4085 -11.2653 -11.2653 -11.2648 -11.2648 -11.2228
   -11.2226 -11.2204 -11.2202 -11.2187 -11.2185 -11.1670 -11.1670 -11.1265
   -11.1263 -11.1203 -11.1200 -11.1197 -11.1195 -11.1181 -11.1176 -11.1174
   -11.1169 -11.1169 -11.1167 -11.1085 -11.1085 -11.0978 -11.0978 -11.0952
   -11.0951 -11.0504 -11.0499 -11.0478 -11.0474 -10.8051 -10.8051 -10.7758
   -10.7757 -10.7752 -10.7752 -10.7606 -10.7606 -10.7584 -10.7584 -10.6311
   -10.6311 -10.6307 -10.6306 -10.5355 -10.5355 -10.5354 -10.5351 -10.5347
   -10.5345 -10.4497 -10.4496 -10.4496 -10.4495 -10.4183 -10.4179 -10.3915
   -10.3915 -10.3911 -10.3910 -10.3583 -10.3583 -10.3581 -10.3581 -10.3137
   -10.3132 -10.3108 -10.3107 -10.1804 -10.1804 -10.1781 -10.1781 -10.1539
   -10.1539 -10.1514 -10.1514 -10.0001 -10.0001  -9.9997  -9.9996  -9.9907
    -9.9904  -9.9904  -9.9901  -9.9294  -9.9293  -9.9278  -9.9278  -9.9084
    -9.8406  -9.8406  -9.8355  -9.8310  -9.8309  -9.8260  -9.8044  -9.8029
    -9.7868  -9.7868  -9.7787  -9.7786  -9.7510  -9.7508  -9.7505  -9.7504
    -9.7481  -9.7480  -9.7461  -9.7460  -9.7459  -9.7458  -9.7326  -9.7278
    -9.7253  -9.7242  -9.7178  -9.7178  -9.7176  -9.7175  -9.6211  -9.6194
    -9.6036  -9.6016  -9.5377  -9.5377  -9.5365  -9.5364  -9.5348  -9.5328
    -9.5320  -9.5319  -9.5315  -9.5314  -9.5314  -9.5308  -9.5283  -9.5280
    -9.5277  -9.5274  -9.5146  -9.5145  -9.5145  -9.5145  -9.5096  -9.5057
    -9.5023  -9.5001  -9.4997  -9.4988  -9.4402  -9.4402  -9.4400  -9.4400
    -9.4296  -9.4292  -9.4243  -9.4241  -9.2793  -9.2793  -9.2771  -9.2771
    -9.2745  -9.2742  -9.2731  -9.2729  -9.2307  -9.2296  -9.2061  -9.2056
    -9.2039  -9.2038  -9.1328  -9.1318  -9.1294  -9.1292  -9.1184  -9.1181
    -9.1160  -9.1158  -9.0837  -9.0837  -9.0306  -9.0305  -9.0298  -9.0297
    -9.0257  -9.0183  -9.0107  -9.0106  -9.0020  -9.0019  -8.9986  -8.9985
    -8.9443  -8.9400  -8.9384  -8.9382  -8.9367  -8.9358  -8.9328  -8.9328
    -8.8726  -8.8725  -8.8710  -8.8709  -8.8510  -8.8509  -8.8507  -8.8507
    -8.8498  -8.8497  -8.8485  -8.8485  -8.8470  -8.8469  -8.8466  -8.8465
    -8.8403  -8.8396  -8.8394  -8.8394  -8.8393  -8.8391  -8.8367  -8.8366
    -8.8124  -8.8124  -8.8104  -8.8103  -8.8101  -8.8095  -8.8093  -8.8092
    -8.8040  -8.8040  -8.7956  -8.7909  -8.7908  -8.7391  -8.7389  -8.7386
    -8.7386  -8.7273  -8.7273  -8.7262  -8.7262  -8.7207  -8.7193  -8.7191
    -8.7183  -8.7175  -8.7174  -8.7173  -8.7149  -8.6997  -8.6995  -8.6956
    -8.6954  -8.6874  -8.6874  -8.6873  -8.6873  -8.6253  -8.6245  -8.6219
    -8.6217  -8.5229  -8.5228  -8.5227  -8.5225  -8.4780  -8.4778  -8.4777
    -8.4777  -8.4776  -8.4771  -8.4770  -8.4768  -8.4709  -8.4709  -8.3893
    -8.3893  -8.3657  -8.3650  -8.3639  -8.3638  -8.3434  -8.3432  -8.3412
    -8.3409  -8.3408  -8.3407  -8.3259  -8.3258  -8.3160  -8.3160  -8.3099
    -8.3099  -8.2761  -8.2760  -8.2753  -8.2753  -8.2734  -8.2732  -8.2679
    -8.2679  -8.2619  -8.2619  -8.2617  -8.2617  -8.1694  -8.1693  -8.1673
    -8.1673  -8.0997  -8.0997  -8.0925  -8.0916  -8.0899  -8.0891  -8.0891
    -8.0848  -8.0773  -8.0736  -8.0735  -8.0732  -8.0731  -8.0626  -8.0608
    -8.0608  -8.0591  -8.0403  -8.0402  -8.0400  -8.0400  -7.9958  -7.9951
    -7.9929  -7.9929  -7.8839  -7.8835  -7.8834  -7.8833  -7.8785  -7.8785
    -7.8785  -7.8784  -7.8725  -7.8723  -7.8720  -7.8718  -7.8120  -7.8119
    -7.8062  -7.8062  -7.7887  -7.7884  -7.7298  -7.7298  -7.7296  -7.7294
    -7.7224  -7.7222  -7.7217  -7.7217  -7.6122  -7.6118  -7.6118  -7.6117
    -7.6108  -7.6107  -7.5983  -7.5977  -7.5974  -7.5974  -7.5973  -7.5973
    -7.5368  -7.5366  -7.5275  -7.5269  -7.5258  -7.5254  -7.4700  -7.4699
    -7.4648  -7.4648  -7.3508  -7.3508  -7.3369  -7.3365  -7.3324  -7.3314
    -7.3032  -7.3031  -7.3028  -7.3026  -7.2729  -7.2726  -7.2715  -7.2711
    -7.2710  -7.2707  -7.2682  -7.2681  -7.2675  -7.2674  -7.2671  -7.2670
    -7.2493  -7.2492  -7.2489  -7.2489  -7.2384  -7.2383  -7.2331  -7.2331
    -7.1806  -7.1801  -7.1798  -7.1782  -7.1779  -7.1766  -7.0618  -7.0617
    -7.0351  -7.0350  -7.0348  -7.0346  -6.9724  -6.9714  -6.9682  -6.9681
    -6.9532  -6.9530  -6.9524  -6.9524  -6.9479  -6.9477  -6.9463  -6.9461
    -6.9459  -6.9458  -6.8817  -6.8804  -6.7386  -6.7384  -6.7379  -6.7379
    -6.6765  -6.6760  -6.6719  -6.6716  -6.6654  -6.6649  -6.6635  -6.6634
    -6.6627  -6.6626  -6.6029  -6.6024  -6.5976  -6.5975  -6.5576  -6.5575
    -6.5416  -6.5411  -6.5409  -6.5406  -6.5405  -6.5382  -6.5365  -6.5352
    -6.5345  -6.5330  -6.5310  -6.5302  -6.5296  -6.5290  -6.4949  -6.4949
    -6.4922  -6.4922  -6.4351  -6.4338  -6.4185  -6.4180  -6.4165  -6.4165
    -6.3149  -6.3148  -6.3144  -6.3143  -6.3122  -6.3087  -6.2545  -6.2493
    -6.2489  -6.2486  -6.2300  -6.2262  -6.1906  -6.1906  -6.1888  -6.1887
    -6.1378  -6.1355  -6.1308  -6.1303  -6.1299  -6.1298  -6.1054  -6.0996
    -6.0825  -6.0825  -6.0821  -6.0820  -6.0485  -6.0482  -6.0461  -6.0461
    -6.0205  -5.9871  -5.9868  -5.8999  -5.8946  -5.8416  -5.8369  -5.8349
    -5.8337  -5.7757  -5.7756  -5.7735  -5.7732  -5.7730  -5.7729  -5.7460
    -5.7459  -5.7440  -5.7432  -5.7423  -5.7419  -5.7378  -5.7377  -5.6742
    -5.6735  -5.6730  -5.6719  -5.6718  -5.6706  -5.6691  -5.6685  -5.6683
    -5.6682  -5.6679  -5.6678  -5.5949  -5.5948  -5.5909  -5.5909  -5.5606
    -5.5574  -5.5574  -5.5054  -5.5010  -5.4592  -5.4591  -5.4576  -5.4575
    -5.4209  -5.4200  -5.4180  -5.4178  -5.4147  -5.4146  -5.4134  -5.4134
    -5.3454  -5.3442  -5.2567  -5.2566  -5.2562  -5.2560  -5.1896  -5.1896
    -5.1892  -5.1891  -5.1491  -5.1490  -5.1442  -5.1442  -5.1252  -5.1245
    -5.1201  -5.1198  -5.1122  -5.1121  -5.1065  -5.1063  -4.8857  -4.8854
    -4.8805  -4.8804  -4.8482  -4.8481  -4.8445  -4.8444  -4.8443  -4.8443
    -4.7225  -4.7224  -4.6653  -4.6653  -0.2617  -0.1239  -0.0551  -0.0388
    -0.0267   0.0259   0.0510   0.0515   0.0670   0.0728   0.0985   0.0987
     0.1340   0.1356   0.1404   0.1407   0.1414   0.1420   0.1524   0.1590
     0.1594

          k = 0.0000 0.3849 0.0000 (****** PWs)   bands (ev):

   -24.2093 -22.3258 -22.2966 -22.2666 -22.2613 -22.2392 -22.2355 -22.1964
   -22.1410 -22.1363 -22.1224 -22.0968 -22.0955 -22.0725 -22.0702 -22.0635
   -22.0608 -21.9732 -21.9715 -21.9248 -21.8997 -21.8981 -21.8697 -21.8654
   -21.8210 -21.8204 -21.8035 -21.7944 -21.7943 -21.7486 -21.7442 -21.7075
   -21.7059 -21.6971 -21.6970 -21.6279 -21.6274 -21.5855 -21.5842 -21.5168
   -21.4633 -21.4588 -21.4455 -21.4449 -21.4379 -21.4377 -21.4196 -21.4191
   -21.3534 -21.3279 -21.3274 -21.3222 -21.3217 -21.3041 -21.3028 -21.2999
   -21.2958 -21.2590 -21.2585 -21.1438 -21.1424 -21.0788 -21.0782 -21.0475
   -21.0469 -20.9913 -20.9817 -20.9816 -20.9673 -20.9667 -20.9574 -20.9573
   -20.9399 -20.9357 -20.8920 -20.8915 -20.8724 -20.8724 -20.8086 -20.8085
   -20.7961 -20.7894 -20.7881 -20.7456 -20.7414 -20.7064 -20.7059 -20.6413
   -20.6412 -20.5987 -20.5973 -20.5593 -20.5588 -20.5489 -20.5484 -20.5385
   -20.5384 -20.4528 -20.4528 -20.4311 -20.4311 -20.3880 -20.3648 -20.3643
   -20.3572 -20.3572 -20.3398 -20.3357 -20.3021 -20.3021 -20.3016 -20.3015
   -20.2353 -20.2347 -20.2006 -20.1994 -20.1816 -20.1682 -20.1682 -20.1586
   -20.1586 -20.1347 -20.1306 -20.0721 -20.0721 -20.0630 -20.0624 -20.0002
   -19.9989 -19.9828 -19.9824 -19.8946 -19.8946 -19.8815 -19.8814 -19.8768
   -19.8768 -19.8720 -19.8720 -19.8227 -19.8227 -19.7914 -19.7909 -19.7870
   -19.7828 -19.7828 -19.7657 -19.7656 -19.7429 -19.7389 -19.7273 -19.7273
   -19.7091 -19.7085 -19.6811 -19.6811 -19.6218 -19.6217 -19.6186 -19.6172
   -19.6115 -19.5689 -19.5649 -19.5368 -19.5368 -19.5336 -19.5330 -19.4920
   -19.4920 -19.4498 -19.4484 -19.4300 -19.4295 -19.4273 -19.4273 -19.4212
   -19.4212 -19.4177 -19.4177 -19.3665 -19.3665 -19.3538 -19.3538 -19.3457
   -19.3346 -19.3346 -19.3206 -19.3206 -19.3055 -19.3010 -19.2955 -19.2955
   -19.2889 -19.2889 -19.2751 -19.2747 -19.2735 -19.2735 -19.2705 -19.2690
   -19.2675 -19.2532 -19.2532 -19.2412 -19.2412 -19.2308 -19.2282 -19.2282
   -19.2277 -19.2069 -19.2063 -19.1939 -19.1939 -19.1934 -19.1927 -19.1232
   -19.1223 -19.1214 -19.1214 -19.0926 -19.0926 -19.0741 -19.0741 -19.0646
   -19.0640 -19.0321 -19.0317 -19.0098 -19.0098 -19.0023 -19.0023 -18.9827
   -18.9827 -18.9659 -18.9657 -18.9519 -18.9519 -18.9394 -18.9394 -18.9078
   -18.9077 -18.8915 -18.8914 -18.8555 -18.8549 -18.8356 -18.8356 -18.7982
   -18.7976 -18.7410 -18.7410 -18.7240 -18.7240 -18.7105 -18.7105 -18.6821
   -18.6820 -13.5361 -13.5361 -13.5130 -13.4904 -13.4904 -13.4670 -13.4622
   -13.4271 -13.4271 -13.4029 -13.4029 -13.3952 -13.3919 -13.3919 -13.3521
   -13.3480 -13.3362 -13.3362 -13.3319 -13.3312 -13.3169 -13.3168 -13.2578
   -13.2578 -13.2242 -13.2230 -13.1940 -13.1939 -13.1485 -13.1485 -13.1407
   -13.1406 -13.1178 -13.1173 -13.0974 -13.0974 -13.0878 -13.0878 -13.0295
   -13.0295 -13.0229 -13.0225 -13.0128 -13.0127 -12.9850 -12.9850 -12.9614
   -12.9555 -12.9555 -12.9230 -12.9196 -12.8948 -12.8948 -12.8911 -12.8911
   -12.8629 -12.8629 -12.8423 -12.8416 -12.8192 -12.8181 -12.7821 -12.7815
   -12.7606 -12.7606 -12.7409 -12.7408 -12.7238 -12.7237 -12.6931 -12.6931
   -12.6899 -12.6897 -12.6813 -12.6813 -12.6721 -12.6720 -12.6671 -12.6671
   -12.6618 -12.6442 -12.6442 -12.6428 -12.6428 -12.6406 -12.6406 -12.6274
   -12.6243 -12.6106 -12.6106 -12.5939 -12.5939 -12.5640 -12.5635 -12.5407
   -12.5396 -12.5150 -12.5150 -12.4883 -12.4883 -12.4359 -12.4355 -12.4183
   -12.4180 -12.4095 -12.4094 -12.3192 -12.3192 -12.3018 -12.3017 -12.2913
   -12.2913 -12.1498 -12.1498 -12.1279 -12.1278 -12.1273 -12.1273 -12.0917
   -12.0913 -11.9788 -11.9435 -11.9289 -11.9289 -11.9177 -11.9163 -11.9122
   -11.9118 -11.8807 -11.8800 -11.8679 -11.8678 -11.8153 -11.8153 -11.7877
   -11.7877 -11.7288 -11.7288 -11.6766 -11.6766 -11.6261 -11.6261 -11.6097
   -11.6097 -11.5982 -11.5982 -11.5739 -11.5729 -11.5400 -11.5301 -11.5300
   -11.5192 -11.5183 -11.5133 -11.5133 -11.5016 -11.5014 -11.4447 -11.4447
   -11.3279 -11.3278 -11.3086 -11.3086 -11.2139 -11.2139 -11.2027 -11.2021
   -11.1770 -11.1770 -11.1443 -11.1438 -11.1130 -11.1130 -10.9963 -10.9963
   -10.9663 -10.9663 -10.9609 -10.9609 -10.9578 -10.9575 -10.9573 -10.9573
   -10.9152 -10.9150 -10.9147 -10.9144 -10.9013 -10.9013 -10.8454 -10.8454
   -10.7431 -10.7428 -10.7251 -10.7225 -10.6813 -10.6813 -10.6787 -10.6787
   -10.6769 -10.6661 -10.6568 -10.6541 -10.6538 -10.5565 -10.5564 -10.5192
   -10.5192 -10.4880 -10.4880 -10.4071 -10.4067 -10.3704 -10.3702 -10.3605
   -10.3605 -10.3457 -10.3456 -10.3331 -10.3331 -10.3256 -10.3237 -10.2947
   -10.2946 -10.2614 -10.2614 -10.2336 -10.2295 -10.2292 -10.2244 -10.2171
   -10.2170 -10.2058 -10.1228 -10.1225 -10.0984 -10.0984 -10.0697 -10.0696
   -10.0349 -10.0349 -10.0207 -10.0206  -9.9915  -9.9915  -9.9830  -9.9829
    -9.9694  -9.9694  -9.8980  -9.8804  -9.8804  -9.8615  -9.8328  -9.8325
    -9.8213  -9.8148  -9.8099  -9.8099  -9.7912  -9.7912  -9.7886  -9.7886
    -9.7853  -9.7806  -9.7495  -9.7495  -9.7433  -9.7433  -9.7263  -9.6826
    -9.6826  -9.6524  -9.6492  -9.6489  -9.6466  -9.6263  -9.6120  -9.6101
    -9.5927  -9.5907  -9.5807  -9.5796  -9.5600  -9.5569  -9.5489  -9.5455
    -9.5416  -9.5403  -9.5244  -9.5242  -9.5002  -9.5002  -9.4658  -9.4645
    -9.4487  -9.4486  -9.4260  -9.4238  -9.4178  -9.4178  -9.3794  -9.3781
    -9.3610  -9.3610  -9.3598  -9.3415  -9.3341  -9.3294  -9.3294  -9.3267
    -9.3246  -9.3104  -9.3102  -9.2889  -9.2864  -9.2810  -9.2735  -9.2735
    -9.2476  -9.2475  -9.2198  -9.2188  -9.2078  -9.2076  -9.1955  -9.1890
    -9.1890  -9.1850  -9.1846  -9.1673  -9.1661  -9.1507  -9.1506  -9.1506
    -9.1494  -9.1483  -9.1483  -9.1299  -9.1299  -9.1224  -9.1170  -9.0847
    -9.0846  -9.0660  -9.0635  -9.0534  -9.0532  -9.0517  -9.0517  -9.0398
    -9.0398  -9.0178  -9.0096  -9.0094  -9.0082  -8.9884  -8.9884  -8.9860
    -8.9814  -8.9656  -8.9655  -8.9585  -8.9577  -8.9576  -8.9574  -8.9546
    -8.9546  -8.9266  -8.9265  -8.9031  -8.9013  -8.8995  -8.8963  -8.8961
    -8.8960  -8.8866  -8.8866  -8.8794  -8.8732  -8.8487  -8.8484  -8.8341
    -8.8196  -8.8195  -8.8064  -8.7997  -8.7928  -8.7911  -8.7911  -8.7864
    -8.7581  -8.7349  -8.7342  -8.7342  -8.7293  -8.7259  -8.7259  -8.7098
    -8.7090  -8.7071  -8.7071  -8.7004  -8.6999  -8.6758  -8.6754  -8.6753
    -8.6747  -8.6741  -8.6732  -8.6527  -8.6285  -8.6284  -8.6122  -8.6122
    -8.5873  -8.5837  -8.5819  -8.5735  -8.5663  -8.5660  -8.5535  -8.5535
    -8.5502  -8.5497  -8.5425  -8.5416  -8.5181  -8.5163  -8.5123  -8.5071
    -8.5029  -8.5028  -8.4836  -8.4819  -8.4736  -8.4730  -8.4656  -8.4655
    -8.4579  -8.4560  -8.4555  -8.4528  -8.4491  -8.4491  -8.4249  -8.4249
    -8.4130  -8.4130  -8.3662  -8.3054  -8.3051  -8.3029  -8.3028  -8.2989
    -8.2970  -8.2838  -8.2836  -8.2426  -8.2426  -8.2398  -8.2090  -8.2080
    -8.1672  -8.1661  -8.1608  -8.1604  -8.1591  -8.1531  -8.1427  -8.1427
    -8.1402  -8.1402  -8.1004  -8.1004  -8.0914  -8.0835  -8.0753  -8.0709
    -8.0696  -8.0682  -8.0682  -8.0641  -8.0578  -8.0569  -8.0549  -8.0536
    -8.0531  -8.0531  -8.0433  -8.0427  -8.0178  -8.0131  -7.9905  -7.9847
    -7.9605  -7.9526  -7.9521  -7.9470  -7.9331  -7.9327  -7.9251  -7.9250
    -7.8770  -7.8766  -7.8367  -7.8367  -7.8303  -7.8295  -7.8266  -7.8263
    -7.8176  -7.8110  -7.8093  -7.7833  -7.7496  -7.7445  -7.7222  -7.7217
    -7.6951  -7.6947  -7.6876  -7.6822  -7.6375  -7.6374  -7.6254  -7.6197
    -7.6102  -7.6102  -7.6041  -7.6041  -7.5862  -7.5855  -7.5562  -7.5556
    -7.5545  -7.5463  -7.5446  -7.5429  -7.5424  -7.5192  -7.5187  -7.4904
    -7.4901  -7.4777  -7.4770  -7.4610  -7.4609  -7.4337  -7.4312  -7.4282
    -7.4244  -7.4244  -7.3778  -7.3774  -7.3678  -7.3676  -7.3424  -7.3424
    -7.3135  -7.3135  -7.2478  -7.2471  -7.2203  -7.2196  -7.2081  -7.2081
    -7.1824  -7.1772  -7.1478  -7.1477  -7.1296  -7.1296  -7.1279  -7.1277
    -7.1141  -7.1138  -7.0452  -7.0395  -7.0372  -7.0367  -7.0260  -7.0248
    -7.0213  -7.0208  -7.0194  -7.0177  -6.9876  -6.9859  -6.9554  -6.9525
    -6.9518  -6.9434  -6.9434  -6.9392  -6.9391  -6.9248  -6.9248  -6.9186
    -6.9174  -6.8913  -6.8862  -6.8783  -6.8557  -6.8507  -6.8404  -6.8007
    -6.8007  -6.7930  -6.7926  -6.7729  -6.7728  -6.7543  -6.7516  -6.7016
    -6.7006  -6.6999  -6.6793  -6.6785  -6.6343  -6.6337  -6.5512  -6.5512
    -6.5481  -6.5279  -6.5279  -6.5274  -6.5273  -6.5132  -6.5131  -6.5118
    -6.5080  -6.4731  -6.4717  -6.4459  -6.4459  -6.4426  -6.4416  -6.4032
    -6.4025  -6.3860  -6.3860  -6.3848  -6.3821  -6.3704  -6.3694  -6.3665
    -6.3645  -6.3560  -6.3560  -6.3240  -6.3189  -6.3067  -6.3066  -6.2839
    -6.2835  -6.2689  -6.2640  -6.2457  -6.2333  -6.2333  -6.1687  -6.1650
    -6.1451  -6.1436  -6.1435  -6.1433  -6.1327  -6.1245  -6.1183  -6.1154
    -6.0653  -6.0602  -6.0552  -6.0263  -6.0262  -6.0233  -6.0219  -6.0182
    -6.0168  -6.0039  -5.9464  -5.9463  -5.8920  -5.8902  -5.8689  -5.8681
    -5.8559  -5.8558  -5.8479  -5.8478  -5.8396  -5.8396  -5.7730  -5.7728
    -5.7580  -5.7579  -5.7226  -5.7225  -5.7180  -5.6978  -5.6977  -5.6617
    -5.6562  -5.6450  -5.6448  -5.6405  -5.6405  -5.6335  -5.6332  -5.6258
    -5.6252  -5.6155  -5.6155  -5.6003  -5.5768  -5.5767  -5.5606  -5.5606
    -5.5455  -5.5440  -5.5440  -5.5410  -5.5326  -5.5322  -5.5011  -5.5010
    -5.4966  -5.4955  -5.3848  -5.3834  -5.3802  -5.3801  -5.3415  -5.3414
    -5.3121  -5.3119  -5.3105  -5.3104  -5.2516  -5.2510  -5.2168  -5.2167
    -5.2082  -5.2081  -5.1735  -5.1735  -5.1450  -5.1445  -5.1296  -5.1295
    -5.1149  -5.1149  -5.0549  -5.0548  -5.0344  -5.0343  -4.9741  -4.9738
    -4.9395  -4.9395  -4.8794  -4.8790  -4.7818  -4.7817  -4.7620  -4.7620
    -4.7361  -4.7361  -4.6900  -4.6900  -0.2605  -0.1209  -0.0759  -0.0408
    -0.0180   0.0019   0.0523   0.0694   0.0699   0.1022   0.1024   0.1160
     0.1164   0.1184   0.1358   0.1360   0.1698   0.1705   0.1725   0.1733
     0.1765

          k = 0.3333 0.0000 0.0000 (****** PWs)   bands (ev):

   -24.2093 -22.3284 -22.3021 -22.2534 -22.2477 -22.2278 -22.2262 -22.2254
   -22.1721 -22.1542 -22.1518 -22.0987 -22.0961 -22.0274 -22.0265 -22.0229
   -22.0030 -22.0026 -21.9514 -21.9488 -21.9320 -21.9305 -21.9299 -21.8770
   -21.8768 -21.8582 -21.8561 -21.7316 -21.7313 -21.7132 -21.6626 -21.6625
   -21.6424 -21.6422 -21.6418 -21.6395 -21.6380 -21.6380 -21.5879 -21.5692
   -21.5691 -21.5179 -21.5163 -21.5153 -21.5144 -21.4290 -21.4289 -21.3750
   -21.3750 -21.3078 -21.3077 -21.3063 -21.2877 -21.2877 -21.2382 -21.2357
   -21.1733 -21.1732 -21.1515 -21.1504 -21.1503 -21.0862 -21.0862 -21.0849
   -21.0824 -21.0817 -21.0817 -21.0351 -21.0349 -21.0328 -21.0327 -20.9676
   -20.9676 -20.8989 -20.8988 -20.8868 -20.8867 -20.8176 -20.8167 -20.8166
   -20.7551 -20.7527 -20.7098 -20.7097 -20.6406 -20.6246 -20.6246 -20.5900
   -20.5899 -20.5809 -20.5785 -20.5704 -20.5703 -20.5700 -20.5699 -20.5678
   -20.5678 -20.5161 -20.5160 -20.5055 -20.5055 -20.4580 -20.4580 -20.4043
   -20.4042 -20.3341 -20.3341 -20.2827 -20.2826 -20.2745 -20.2743 -20.2725
   -20.2585 -20.2585 -20.2199 -20.2176 -20.1551 -20.1550 -20.1263 -20.1262
   -20.0854 -20.0843 -20.0843 -20.0663 -20.0662 -20.0371 -20.0349 -19.9878
   -19.9878 -19.9760 -19.9754 -19.9549 -19.9541 -19.8995 -19.8993 -19.8983
   -19.8982 -19.8981 -19.8976 -19.8555 -19.8548 -19.8299 -19.8298 -19.7825
   -19.7825 -19.7730 -19.7730 -19.7444 -19.7437 -19.7144 -19.6893 -19.6893
   -19.6799 -19.6796 -19.6778 -19.6762 -19.6754 -19.6751 -19.5795 -19.5794
   -19.5407 -19.5406 -19.5361 -19.5275 -19.5270 -19.5072 -19.5059 -19.4754
   -19.4754 -19.4624 -19.4551 -19.4470 -19.4465 -19.4435 -19.4434 -19.4386
   -19.4386 -19.4385 -19.4372 -19.4344 -19.4343 -19.3896 -19.3865 -19.3844
   -19.3844 -19.3517 -19.3485 -19.3409 -19.3409 -19.2960 -19.2960 -19.2831
   -19.2826 -19.2557 -19.2551 -19.2551 -19.2515 -19.2409 -19.2408 -19.2408
   -19.2231 -19.2166 -19.2121 -19.2081 -19.2046 -19.2043 -19.1998 -19.1975
   -19.1970 -19.1943 -19.1925 -19.1923 -19.1898 -19.1895 -19.1759 -19.1758
   -19.1757 -19.1402 -19.1058 -19.1048 -19.0788 -19.0737 -19.0732 -19.0695
   -19.0695 -19.0685 -19.0597 -19.0498 -19.0262 -19.0255 -19.0110 -19.0059
   -18.9973 -18.9970 -18.9966 -18.9838 -18.9835 -18.8940 -18.8860 -18.8828
   -18.8808 -18.8758 -18.8427 -18.8356 -18.8349 -18.8286 -18.8191 -18.8147
   -18.7736 -18.7700 -18.7654 -18.7630 -18.7561 -18.7314 -18.6952 -18.6685
   -18.6593 -13.5486 -13.5279 -13.5278 -13.5266 -13.4719 -13.4718 -13.4686
   -13.4657 -13.4656 -13.4530 -13.4530 -13.4238 -13.3397 -13.3396 -13.3233
   -13.3233 -13.3052 -13.2328 -13.2325 -13.2318 -13.2276 -13.2271 -13.2117
   -13.2116 -13.2084 -13.2036 -13.1903 -13.1903 -13.1869 -13.1869 -13.1864
   -13.1854 -13.1717 -13.1714 -13.1574 -13.1568 -13.1365 -13.1341 -13.0976
   -13.0952 -13.0599 -12.9997 -12.9996 -12.9969 -12.9947 -12.9642 -12.9534
   -12.9529 -12.9364 -12.9348 -12.9071 -12.9059 -12.9048 -12.9044 -12.8998
   -12.8982 -12.8580 -12.8579 -12.8110 -12.8107 -12.8096 -12.8083 -12.8058
   -12.8050 -12.8035 -12.8033 -12.8020 -12.7999 -12.7605 -12.7439 -12.7411
   -12.7322 -12.7308 -12.7236 -12.7230 -12.7003 -12.6977 -12.6684 -12.6521
   -12.6496 -12.6488 -12.6452 -12.6433 -12.6432 -12.6429 -12.6422 -12.5901
   -12.5754 -12.5753 -12.5714 -12.5356 -12.5356 -12.5253 -12.4970 -12.4966
   -12.4109 -12.3833 -12.3810 -12.3638 -12.3634 -12.3185 -12.3183 -12.3007
   -12.2999 -12.2710 -12.2708 -12.2704 -12.2702 -12.2700 -12.2696 -12.2479
   -12.2474 -12.2004 -12.1999 -12.1989 -12.1983 -12.1782 -12.1765 -12.1765
   -12.1757 -12.1745 -12.1739 -12.1673 -12.1667 -12.0810 -12.0344 -12.0344
   -12.0071 -12.0065 -11.9788 -11.9434 -11.9434 -11.8714 -11.8230 -11.7805
   -11.7363 -11.7363 -11.7010 -11.7010 -11.6905 -11.6880 -11.6432 -11.5330
   -11.5330 -11.5259 -11.4516 -11.4207 -11.4201 -11.4141 -11.4116 -11.4083
   -11.4083 -11.3963 -11.3950 -11.3780 -11.3779 -11.3779 -11.3597 -11.3558
   -11.3530 -11.3261 -11.3255 -11.2320 -11.2297 -11.1898 -11.1898 -11.1449
   -11.1449 -11.1176 -11.1176 -11.1049 -11.1049 -11.1045 -11.1038 -11.1037
   -11.1036 -11.0995 -11.0977 -11.0977 -11.0952 -11.0952 -11.0866 -11.0845
   -10.9667 -10.9652 -10.9314 -10.9293 -10.8403 -10.8403 -10.8268 -10.8241
   -10.8098 -10.8072 -10.7772 -10.7772 -10.7556 -10.6951 -10.6487 -10.6483
   -10.6208 -10.6204 -10.5836 -10.5836 -10.5785 -10.5777 -10.5759 -10.5744
   -10.5732 -10.5731 -10.4951 -10.4941 -10.4938 -10.4870 -10.4845 -10.4387
   -10.4382 -10.3961 -10.3957 -10.3830 -10.3808 -10.3071 -10.2728 -10.2724
   -10.2099 -10.2095 -10.1732 -10.1732 -10.1728 -10.1420 -10.1414 -10.1411
   -10.1254 -10.1254 -10.0960 -10.0956 -10.0719 -10.0459 -10.0432 -10.0308
   -10.0308  -9.9703  -9.9680  -9.9014  -9.8736  -9.8703  -9.8587  -9.8587
    -9.8504  -9.8501  -9.8137  -9.8136  -9.8129  -9.8105  -9.8104  -9.8103
    -9.8016  -9.7951  -9.7834  -9.7807  -9.7707  -9.7675  -9.7672  -9.7660
    -9.7659  -9.7641  -9.7641  -9.7555  -9.7554  -9.7539  -9.7518  -9.7514
    -9.7512  -9.7497  -9.7497  -9.6944  -9.6940  -9.6937  -9.6858  -9.6858
    -9.6704  -9.6685  -9.6685  -9.6674  -9.6052  -9.6052  -9.5954  -9.5922
    -9.5852  -9.5850  -9.5850  -9.5100  -9.5098  -9.5009  -9.4981  -9.4961
    -9.4929  -9.4673  -9.4672  -9.4668  -9.4643  -9.4526  -9.4526  -9.4069
    -9.4064  -9.3964  -9.3930  -9.3892  -9.3703  -9.3686  -9.3683  -9.3680
    -9.3679  -9.3669  -9.3669  -9.3357  -9.3072  -9.3053  -9.3050  -9.3025
    -9.2960  -9.2953  -9.2710  -9.2684  -9.2600  -9.2600  -9.2428  -9.2428
    -9.1996  -9.1993  -9.1874  -9.1866  -9.1866  -9.1564  -9.1052  -9.1024
    -9.0992  -9.0985  -9.0938  -9.0938  -9.0796  -9.0774  -9.0741  -9.0682
    -9.0678  -9.0583  -9.0583  -9.0538  -9.0537  -9.0053  -9.0053  -9.0038
    -9.0036  -8.9787  -8.9778  -8.9773  -8.9747  -8.9734  -8.9734  -8.9091
    -8.9091  -8.9039  -8.8990  -8.8791  -8.8790  -8.8737  -8.8736  -8.8714
    -8.8713  -8.8599  -8.8596  -8.8591  -8.8590  -8.8554  -8.8554  -8.8484
    -8.8483  -8.8303  -8.8296  -8.8295  -8.8247  -8.8186  -8.8185  -8.8177
    -8.8176  -8.8153  -8.8142  -8.8139  -8.8139  -8.8092  -8.8071  -8.8059
    -8.8048  -8.8006  -8.8006  -8.7912  -8.7912  -8.7705  -8.7681  -8.7666
    -8.7665  -8.7407  -8.7388  -8.6900  -8.6898  -8.6881  -8.6876  -8.6588
    -8.6588  -8.6486  -8.6486  -8.6407  -8.6407  -8.6215  -8.6194  -8.6149
    -8.6148  -8.5785  -8.5784  -8.5773  -8.5765  -8.5765  -8.5574  -8.5574
    -8.5492  -8.5492  -8.5225  -8.5219  -8.5205  -8.5029  -8.5028  -8.4960
    -8.4959  -8.4659  -8.4659  -8.4638  -8.4366  -8.4365  -8.4279  -8.4278
    -8.4277  -8.4268  -8.4247  -8.4247  -8.4246  -8.4243  -8.4026  -8.4026
    -8.3970  -8.3970  -8.3940  -8.3920  -8.3570  -8.3568  -8.3368  -8.3366
    -8.3302  -8.3302  -8.3091  -8.3085  -8.3084  -8.2197  -8.2189  -8.2178
    -8.2147  -8.2140  -8.2140  -8.1974  -8.1974  -8.1968  -8.1966  -8.1966
    -8.1964  -8.1498  -8.1488  -8.1467  -8.1464  -8.1346  -8.1343  -8.1339
    -8.1336  -8.1240  -8.1240  -8.1220  -8.1078  -8.1078  -8.0799  -8.0777
    -8.0563  -8.0548  -8.0118  -8.0118  -7.9624  -7.9621  -7.9496  -7.9495
    -7.9492  -7.9472  -7.9464  -7.9464  -7.9446  -7.9445  -7.8904  -7.8900
    -7.8496  -7.8490  -7.8488  -7.8346  -7.7993  -7.7993  -7.7683  -7.7662
    -7.7632  -7.7603  -7.7489  -7.7487  -7.7326  -7.7312  -7.7066  -7.7066
    -7.7021  -7.7021  -7.6995  -7.6994  -7.6479  -7.6473  -7.6334  -7.6334
    -7.6045  -7.5828  -7.5827  -7.5304  -7.5302  -7.5213  -7.5183  -7.5054
    -7.5053  -7.5051  -7.5048  -7.5032  -7.5031  -7.4833  -7.4830  -7.4761
    -7.4760  -7.4692  -7.4683  -7.4671  -7.4610  -7.4593  -7.4315  -7.4314
    -7.4158  -7.4157  -7.3713  -7.3623  -7.3620  -7.3511  -7.3511  -7.3497
    -7.3496  -7.3294  -7.3283  -7.2729  -7.2727  -7.2462  -7.2456  -7.1946
    -7.1939  -7.1766  -7.1765  -7.1632  -7.1568  -7.1447  -7.1445  -7.1418
    -7.1416  -7.1415  -7.1406  -7.1012  -7.1011  -7.0913  -7.0907  -7.0896
    -7.0821  -7.0821  -7.0706  -7.0705  -7.0426  -7.0423  -7.0151  -7.0123
    -6.9266  -6.9254  -6.9215  -6.9214  -6.8784  -6.8784  -6.8530  -6.8528
    -6.8250  -6.8242  -6.8242  -6.8096  -6.8071  -6.7939  -6.7936  -6.7609
    -6.7608  -6.7597  -6.7555  -6.7527  -6.7089  -6.7086  -6.6865  -6.6864
    -6.6639  -6.6620  -6.6595  -6.6589  -6.6334  -6.6333  -6.6277  -6.6011
    -6.6010  -6.5879  -6.5535  -6.5533  -6.5523  -6.5521  -6.5518  -6.5517
    -6.5503  -6.5502  -6.4911  -6.4909  -6.4498  -6.4497  -6.4242  -6.4214
    -6.4098  -6.4081  -6.4062  -6.3898  -6.3897  -6.3685  -6.3684  -6.3377
    -6.3336  -6.3320  -6.3318  -6.3255  -6.3246  -6.3011  -6.2909  -6.2430
    -6.2429  -6.2383  -6.2379  -6.2366  -6.2342  -6.2334  -6.2333  -6.1923
    -6.1912  -6.1887  -6.1519  -6.1495  -6.0965  -6.0849  -6.0846  -6.0396
    -6.0295  -6.0233  -6.0216  -6.0186  -6.0163  -6.0160  -6.0143  -5.9991
    -5.9849  -5.9827  -5.9335  -5.9334  -5.8982  -5.8966  -5.8939  -5.8889
    -5.8725  -5.8723  -5.8680  -5.8679  -5.8678  -5.8665  -5.8665  -5.8663
    -5.7945  -5.7941  -5.7941  -5.7913  -5.7387  -5.7355  -5.7158  -5.7158
    -5.6500  -5.6496  -5.6430  -5.6429  -5.5956  -5.5920  -5.5802  -5.5801
    -5.5685  -5.5684  -5.5555  -5.5380  -5.5327  -5.5298  -5.5294  -5.5201
    -5.5193  -5.5104  -5.5103  -5.5093  -5.5065  -5.4956  -5.4954  -5.4922
    -5.4922  -5.4614  -5.4612  -5.4610  -5.4081  -5.3599  -5.3589  -5.3260
    -5.3210  -5.3201  -5.3168  -5.3164  -5.3156  -5.3069  -5.2724  -5.2423
    -5.2416  -5.2218  -5.2179  -5.1927  -5.1924  -5.1921  -5.1719  -5.1718
    -5.0332  -5.0275  -5.0176  -5.0106  -5.0061  -4.9519  -4.9455  -4.9446
    -4.9298  -4.9101  -4.9060  -4.8401  -4.8364  -4.8260  -4.8232  -4.8143
    -4.7702  -4.7089  -4.6668  -4.6503  -0.2613  -0.1253  -0.0771  -0.0164
     0.0029   0.0172   0.0192   0.0423   0.0528   0.0799   0.0883   0.1078
     0.1304   0.1392   0.1433   0.1501   0.1580   0.1657   0.1683   0.1721
     0.1771

          k = 0.3333 0.3849 0.0000 (****** PWs)   bands (ev):

   -24.2093 -22.3217 -22.2955 -22.2882 -22.2675 -22.2213 -22.1943 -22.1911
   -22.1697 -22.1625 -22.1385 -22.1165 -22.0953 -22.0932 -22.0398 -22.0221
   -22.0155 -21.9893 -21.9661 -21.9244 -21.9202 -21.8977 -21.8966 -21.8925
   -21.8252 -21.8201 -21.8018 -21.7984 -21.7752 -21.7705 -21.7292 -21.7062
   -21.7043 -21.6799 -21.6505 -21.6274 -21.5852 -21.5807 -21.5548 -21.5384
   -21.5165 -21.5119 -21.5065 -21.4888 -21.4615 -21.4209 -21.4200 -21.3913
   -21.3674 -21.3486 -21.3281 -21.3256 -21.2992 -21.2742 -21.2578 -21.2286
   -21.2128 -21.2078 -21.2060 -21.1842 -21.1447 -21.1429 -21.1201 -21.1168
   -21.0942 -21.0695 -21.0322 -20.9871 -20.9856 -20.9664 -20.9644 -20.9453
   -20.9370 -20.8988 -20.8493 -20.8314 -20.8284 -20.8112 -20.7935 -20.7925
   -20.7881 -20.7876 -20.7695 -20.7182 -20.7057 -20.7055 -20.6895 -20.6763
   -20.6566 -20.6443 -20.6379 -20.6345 -20.6119 -20.5767 -20.5335 -20.5291
   -20.4836 -20.4749 -20.4511 -20.4511 -20.4414 -20.4332 -20.3854 -20.3841
   -20.3623 -20.3461 -20.3220 -20.3024 -20.3017 -20.2703 -20.2676 -20.2556
   -20.2470 -20.2292 -20.1787 -20.1780 -20.1692 -20.1591 -20.1562 -20.1358
   -20.1275 -20.1185 -20.0978 -20.0808 -20.0629 -20.0616 -20.0532 -20.0324
   -20.0166 -19.9994 -19.9988 -19.9956 -19.9535 -19.9527 -19.9372 -19.9164
   -19.8974 -19.8960 -19.8678 -19.8397 -19.8354 -19.8043 -19.7836 -19.7654
   -19.7627 -19.7605 -19.7368 -19.7113 -19.7090 -19.7084 -19.6953 -19.6673
   -19.6508 -19.6453 -19.6410 -19.6225 -19.6179 -19.6174 -19.6118 -19.6085
   -19.6084 -19.5878 -19.5610 -19.5365 -19.5358 -19.5342 -19.5268 -19.5199
   -19.5155 -19.5131 -19.4977 -19.4960 -19.4896 -19.4869 -19.4627 -19.4439
   -19.4395 -19.4045 -19.3949 -19.3912 -19.3724 -19.3582 -19.3568 -19.3566
   -19.3444 -19.3431 -19.3360 -19.3347 -19.3345 -19.3222 -19.3089 -19.2844
   -19.2816 -19.2757 -19.2729 -19.2651 -19.2580 -19.2496 -19.2487 -19.2363
   -19.2346 -19.2180 -19.2132 -19.2108 -19.2045 -19.2033 -19.1999 -19.1984
   -19.1978 -19.1971 -19.1906 -19.1901 -19.1653 -19.1547 -19.1443 -19.1408
   -19.1376 -19.1321 -19.1318 -19.1240 -19.1221 -19.0907 -19.0898 -19.0809
   -19.0745 -19.0682 -19.0643 -19.0606 -19.0597 -19.0563 -19.0217 -18.9993
   -18.9722 -18.9563 -18.9511 -18.9409 -18.9214 -18.9157 -18.9120 -18.9090
   -18.9084 -18.8649 -18.8570 -18.8513 -18.8502 -18.8407 -18.8333 -18.8041
   -18.7846 -18.7635 -18.7603 -18.7494 -18.7151 -18.7099 -18.7083 -18.6792
   -18.6718 -13.5371 -13.5183 -13.5097 -13.4950 -13.4943 -13.4874 -13.4807
   -13.4306 -13.4186 -13.4144 -13.3950 -13.3931 -13.3865 -13.3849 -13.3709
   -13.3328 -13.3317 -13.3200 -13.3169 -13.3038 -13.2966 -13.2809 -13.2747
   -13.2691 -13.2661 -13.2288 -13.2152 -13.2037 -13.1974 -13.1676 -13.1641
   -13.1420 -13.1082 -13.0969 -13.0964 -13.0926 -13.0850 -13.0630 -13.0517
   -13.0308 -13.0304 -13.0130 -13.0110 -12.9590 -12.9584 -12.9532 -12.9491
   -12.9435 -12.9397 -12.9371 -12.9298 -12.9149 -12.8951 -12.8941 -12.8790
   -12.8762 -12.8618 -12.8594 -12.8565 -12.8085 -12.7866 -12.7840 -12.7826
   -12.7744 -12.7737 -12.7727 -12.7479 -12.7369 -12.7323 -12.7232 -12.7228
   -12.7121 -12.7103 -12.6899 -12.6840 -12.6682 -12.6681 -12.6656 -12.6636
   -12.6599 -12.6573 -12.6441 -12.6411 -12.6270 -12.6251 -12.6138 -12.6027
   -12.6006 -12.5843 -12.5738 -12.5705 -12.5656 -12.5648 -12.5569 -12.5536
   -12.5404 -12.5393 -12.5040 -12.4755 -12.4670 -12.4628 -12.4506 -12.4154
   -12.4092 -12.4080 -12.4010 -12.3977 -12.3854 -12.3549 -12.3021 -12.2371
   -12.2303 -12.2177 -12.2068 -12.1212 -12.1077 -12.0969 -12.0722 -12.0343
   -12.0220 -11.9826 -11.9788 -11.9428 -11.9289 -11.9251 -11.9137 -11.9118
   -11.9030 -11.8896 -11.8755 -11.8747 -11.8622 -11.8599 -11.8382 -11.8025
   -11.7770 -11.7638 -11.7595 -11.7165 -11.6472 -11.6323 -11.6094 -11.6092
   -11.6012 -11.5980 -11.5522 -11.5421 -11.5325 -11.5304 -11.5303 -11.5220
   -11.5152 -11.5133 -11.5091 -11.5043 -11.5035 -11.4654 -11.4266 -11.4186
   -11.3522 -11.3204 -11.3136 -11.3058 -11.3042 -11.2977 -11.2526 -11.2073
   -11.2068 -11.1541 -11.1451 -11.1444 -11.1406 -11.1106 -11.0734 -11.0682
   -11.0647 -11.0001 -10.9960 -10.9502 -10.9162 -10.9153 -10.9020 -10.8875
   -10.8860 -10.8722 -10.8558 -10.8459 -10.8456 -10.8300 -10.7876 -10.7745
   -10.7709 -10.7155 -10.7069 -10.6967 -10.6823 -10.6810 -10.6808 -10.6782
   -10.6663 -10.6631 -10.6567 -10.6472 -10.6415 -10.6045 -10.5726 -10.5718
   -10.5556 -10.5524 -10.5353 -10.5057 -10.4823 -10.4146 -10.3979 -10.3661
   -10.3611 -10.3605 -10.3524 -10.3446 -10.3248 -10.3241 -10.3237 -10.2772
   -10.2735 -10.2624 -10.2474 -10.2193 -10.2170 -10.2129 -10.2062 -10.1953
   -10.1866 -10.1609 -10.1411 -10.1316 -10.0982 -10.0978 -10.0668 -10.0644
   -10.0604 -10.0297 -10.0296 -10.0049  -9.9895  -9.9693  -9.9690  -9.9493
    -9.9284  -9.9135  -9.8957  -9.8914  -9.8845  -9.8719  -9.8719  -9.8704
    -9.8639  -9.8608  -9.8510  -9.8505  -9.8320  -9.8242  -9.8205  -9.7714
    -9.7600  -9.7248  -9.7187  -9.7137  -9.7115  -9.6914  -9.6820  -9.6743
    -9.6588  -9.6510  -9.6493  -9.6436  -9.6207  -9.6182  -9.6111  -9.6103
    -9.6095  -9.5910  -9.5892  -9.5681  -9.5664  -9.5588  -9.5478  -9.5408
    -9.5403  -9.5161  -9.4917  -9.4830  -9.4717  -9.4594  -9.4489  -9.4485
    -9.4468  -9.4464  -9.4455  -9.4165  -9.4042  -9.3861  -9.3809  -9.3805
    -9.3796  -9.3790  -9.3780  -9.3596  -9.3527  -9.3501  -9.3323  -9.3292
    -9.3261  -9.3247  -9.3237  -9.3170  -9.3121  -9.3097  -9.3055  -9.3008
    -9.2924  -9.2689  -9.2387  -9.2287  -9.2263  -9.2189  -9.2134  -9.2070
    -9.1955  -9.1942  -9.1881  -9.1858  -9.1787  -9.1777  -9.1595  -9.1577
    -9.1554  -9.1523  -9.1522  -9.1498  -9.1497  -9.1489  -9.1121  -9.1063
    -9.0959  -9.0748  -9.0643  -9.0624  -9.0515  -9.0510  -9.0440  -9.0403
    -9.0399  -9.0306  -9.0298  -9.0189  -9.0023  -8.9962  -8.9896  -8.9643
    -8.9624  -8.9584  -8.9578  -8.9577  -8.9573  -8.9532  -8.9381  -8.9352
    -8.9104  -8.9009  -8.8938  -8.8905  -8.8885  -8.8688  -8.8640  -8.8613
    -8.8599  -8.8535  -8.8396  -8.8369  -8.8356  -8.8251  -8.8232  -8.8125
    -8.8064  -8.8041  -8.8013  -8.7993  -8.7992  -8.7945  -8.7887  -8.7841
    -8.7708  -8.7646  -8.7597  -8.7545  -8.7491  -8.7434  -8.7324  -8.7234
    -8.7126  -8.6965  -8.6922  -8.6845  -8.6775  -8.6769  -8.6761  -8.6746
    -8.6741  -8.6612  -8.6579  -8.6526  -8.6436  -8.6369  -8.6189  -8.6128
    -8.6118  -8.6105  -8.6092  -8.6044  -8.5982  -8.5975  -8.5920  -8.5766
    -8.5597  -8.5511  -8.5503  -8.5483  -8.5311  -8.5149  -8.5106  -8.5078
    -8.5024  -8.4827  -8.4821  -8.4815  -8.4776  -8.4656  -8.4651  -8.4548
    -8.4226  -8.4150  -8.4058  -8.3929  -8.3910  -8.3861  -8.3859  -8.3839
    -8.3539  -8.3466  -8.3422  -8.3390  -8.3284  -8.3194  -8.3054  -8.3053
    -8.3009  -8.2995  -8.2976  -8.2949  -8.2677  -8.2667  -8.2643  -8.2615
    -8.2593  -8.2433  -8.2325  -8.2304  -8.2062  -8.1994  -8.1971  -8.1958
    -8.1830  -8.1609  -8.1604  -8.1456  -8.1321  -8.0879  -8.0814  -8.0742
    -8.0582  -8.0573  -8.0541  -8.0525  -8.0496  -8.0430  -8.0238  -8.0151
    -8.0075  -8.0067  -7.9709  -7.9707  -7.9632  -7.9619  -7.9611  -7.9551
    -7.9536  -7.9477  -7.9044  -7.8987  -7.8936  -7.8835  -7.8774  -7.8766
    -7.8677  -7.8644  -7.8403  -7.8319  -7.8182  -7.8157  -7.8124  -7.8095
    -7.8087  -7.8067  -7.7984  -7.7956  -7.7837  -7.7773  -7.7548  -7.7175
    -7.7126  -7.7054  -7.7050  -7.6946  -7.6944  -7.6927  -7.6704  -7.6573
    -7.6547  -7.6268  -7.6181  -7.6109  -7.6104  -7.6088  -7.6015  -7.5956
    -7.5674  -7.5656  -7.5549  -7.5549  -7.5198  -7.5192  -7.5146  -7.5048
    -7.4661  -7.4550  -7.4530  -7.4499  -7.3919  -7.3838  -7.3725  -7.3708
    -7.3628  -7.3423  -7.3412  -7.3411  -7.3398  -7.3336  -7.3309  -7.3250
    -7.3142  -7.3052  -7.2684  -7.2599  -7.2478  -7.2459  -7.2418  -7.2416
    -7.2150  -7.2003  -7.1938  -7.1767  -7.1726  -7.1565  -7.1486  -7.1476
    -7.1365  -7.1299  -7.1293  -7.1288  -7.0874  -7.0824  -7.0648  -7.0549
    -7.0496  -7.0248  -6.9904  -6.9559  -6.9558  -6.9497  -6.9491  -6.9443
    -6.9252  -6.9229  -6.9192  -6.9180  -6.8976  -6.8961  -6.8822  -6.8790
    -6.8769  -6.8715  -6.8586  -6.8395  -6.8178  -6.7930  -6.7920  -6.7766
    -6.7748  -6.7737  -6.7681  -6.7598  -6.7498  -6.7445  -6.7204  -6.7189
    -6.7007  -6.7000  -6.6913  -6.6774  -6.6643  -6.6372  -6.6347  -6.6333
    -6.6148  -6.6123  -6.5923  -6.5892  -6.5762  -6.5695  -6.5549  -6.5489
    -6.5483  -6.5315  -6.5130  -6.4713  -6.4594  -6.4469  -6.4430  -6.4407
    -6.4226  -6.3961  -6.3792  -6.3558  -6.3537  -6.3520  -6.3499  -6.3134
    -6.3126  -6.3042  -6.2855  -6.2838  -6.2748  -6.2644  -6.2614  -6.2485
    -6.2378  -6.2155  -6.2036  -6.1949  -6.1810  -6.1709  -6.1599  -6.1575
    -6.1444  -6.1436  -6.1410  -6.1336  -6.1223  -6.1191  -6.1049  -6.0940
    -6.0701  -6.0617  -6.0578  -6.0465  -6.0263  -6.0208  -6.0175  -6.0169
    -6.0167  -6.0063  -5.9987  -5.9973  -5.9866  -5.9691  -5.9600  -5.9521
    -5.9453  -5.9130  -5.8924  -5.8696  -5.8189  -5.8116  -5.7920  -5.7673
    -5.7602  -5.7600  -5.7424  -5.7229  -5.7226  -5.7208  -5.7128  -5.7123
    -5.6884  -5.6654  -5.6472  -5.6238  -5.6167  -5.6138  -5.6024  -5.5951
    -5.5736  -5.5730  -5.5604  -5.5480  -5.5367  -5.5247  -5.5244  -5.5229
    -5.5167  -5.5121  -5.5117  -5.5057  -5.5008  -5.4949  -5.4936  -5.4478
    -5.4311  -5.4229  -5.4193  -5.4174  -5.4146  -5.4144  -5.3851  -5.3835
    -5.3407  -5.3399  -5.3288  -5.3155  -5.3114  -5.3112  -5.3069  -5.2922
    -5.2823  -5.2309  -5.2090  -5.1588  -5.1362  -5.1189  -5.1148  -5.0796
    -5.0658  -5.0647  -5.0558  -5.0553  -4.9829  -4.9752  -4.9685  -4.9655
    -4.9529  -4.9389  -4.8904  -4.8572  -4.8252  -4.8186  -4.8007  -4.7415
    -4.7358  -4.7339  -4.6848  -4.6718  -0.2601  -0.1146  -0.0901  -0.0619
    -0.0063   0.0500   0.0566   0.0624   0.0772   0.0939   0.1019   0.1040
     0.1052   0.1233   0.1378   0.1552   0.1643   0.1675   0.1707   0.1757
     0.1770

     highest occupied, lowest unoccupied level (ev):    -4.6503   -0.2617

!    total energy              =  -10249.33071205 Ry
     total all-electron energy =    -40959.942838 Ry
     estimated scf accuracy    <       0.00000011 Ry

     The total energy is the sum of the following terms:
     one-electron contribution =  -90020.47708047 Ry
     hartree contribution      =   45421.85838210 Ry
     xc contribution           =   -2267.17713389 Ry
     ewald contribution        =   40000.17801879 Ry
     one-center paw contrib.   =   -3383.71289858 Ry

     convergence has been achieved in  11 iterations

     Writing all to output data dir ./hBN_water_Oup_Hdown.save/

     init_run     :    807.24s CPU    815.01s WALL (       1 calls)
     electrons    :  20960.01s CPU  21068.98s WALL (       1 calls)

     Called by init_run:
     wfcinit      :    782.01s CPU    788.77s WALL (       1 calls)
     potinit      :      3.28s CPU      3.33s WALL (       1 calls)
     hinit0       :      5.26s CPU      5.36s WALL (       1 calls)

     Called by electrons:
     c_bands      :  19241.22s CPU  19329.14s WALL (      11 calls)
     sum_band     :   1689.86s CPU   1703.02s WALL (      11 calls)
     v_of_rho     :      5.89s CPU      5.99s WALL (      12 calls)
     newd         :     21.31s CPU     29.10s WALL (      12 calls)
     PAW_pot      :      1.93s CPU      1.94s WALL (      12 calls)
     mix_rho      :      1.67s CPU      1.75s WALL (      11 calls)

     Called by c_bands:
     init_us_2    :     93.09s CPU     94.21s WALL (      92 calls)
     init_us_2:cp :     93.09s CPU     94.21s WALL (      92 calls)
     cegterg      :  19143.96s CPU  19228.63s WALL (      52 calls)

     Called by *egterg:
     cdiaghg      :    174.57s CPU    180.60s WALL (     496 calls)
     h_psi        :  10269.64s CPU  10311.70s WALL (     500 calls)
     s_psi        :   2885.58s CPU   2890.32s WALL (     500 calls)
     g_psi        :     14.97s CPU     15.00s WALL (     444 calls)

     Called by h_psi:
     h_psi:calbec :   2993.93s CPU   2997.64s WALL (     500 calls)
     vloc_psi     :   4350.15s CPU   4363.35s WALL (     500 calls)
     add_vuspsi   :   2895.53s CPU   2906.04s WALL (     500 calls)

     General routines
     calbec       :   3769.35s CPU   3773.81s WALL (     544 calls)
     fft          :      4.06s CPU      4.17s WALL (     132 calls)
     ffts         :      0.29s CPU      0.30s WALL (      11 calls)
     fftw         :   4241.64s CPU   4254.30s WALL (  358922 calls)

     Parallel routines

     PWSCF        :      6h 4m CPU      6h 7m WALL


   This run was terminated on:   2: 8:15  26Oct2022            

=------------------------------------------------------------------------------=
   JOB DONE.
=------------------------------------------------------------------------------=
