[1666305590.873895] [rustyamd2:2190082:0]       rdmacm_cm.c:917  UCX  ERROR rdma_create_event_channel failed: Operation not permitted

     Program PWSCF v.7.1 starts on 20Oct2022 at 18:39:50 
        Git branch: HEAD
        Last git commit: 564a7b486665e8dd0223d6e514b84195d1a96c10
        Last git commit date: Tue Jun 14 16:16:48 2022 +0000
        Last git commit subject: Merge branch 'update_version_number' into 'develop

     This program is part of the open-source Quantum ESPRESSO suite
     for quantum simulation of materials; please cite
         "P. Giannozzi et al., J. Phys.:Condens. Matter 21 395502 (2009);
         "P. Giannozzi et al., J. Phys.:Condens. Matter 29 465901 (2017);
         "P. Giannozzi et al., J. Chem. Phys. 152 154105 (2020);
          URL http://www.quantum-espresso.org", 
     in publications or presentations arising from this work. More details at
     http://www.quantum-espresso.org/quote

     Parallel version (MPI & OpenMP), running on       1 processor cores
     Number of MPI processes:                 1
     Threads/MPI process:                     1

     MPI processes distributed on     1 nodes
     449918 MiB available memory on the printing compute node when the environment starts

     Waiting for input...
     Reading input from standard input

     Current dimensions of program PWSCF are:
     Max number of different atomic species (ntypx) = 10
     Max number of k-points (npk) =  40000
     Max angular momentum in pseudopotentials (lmaxx) =  4
     file N.pbe-n-kjpaw_psl.1.0.0.UPF: wavefunction(s)  2S renormalized
     file O.pbe-n-kjpaw_psl.1.0.0.UPF: wavefunction(s)  2S 2P renormalized
     file H.pbe-kjpaw_psl.1.0.0.UPF: wavefunction(s)  1S renormalized
     Message from routine setup:
     using ibrav=0 with symmetry is DISCOURAGED, use correct ibrav instead

     Subspace diagonalization in iterative solution of the eigenvalue problem:
     a serial algorithm will be used


     G-vector sticks info
     --------------------
     sticks:   dense  smooth     PW     G-vecs:    dense   smooth      PW
     Sum        1271    1271    353               219497   219497   32249

     Using Slab Decomposition



     bravais-lattice index     =            0
     lattice parameter (alat)  =       9.4658  a.u.
     unit-cell volume          =    4399.1244 (a.u.)^3
     number of atoms/cell      =           11
     number of atomic types    =            4
     number of electrons       =        40.00
     number of Kohn-Sham states=           33
     kinetic-energy cutoff     =      51.4490  Ry
     charge density cutoff     =     205.7961  Ry
     scf convergence threshold =      1.0E-06
     mixing beta               =       0.7000
     number of iterations used =            8  plain     mixing
     Exchange-correlation= SLA  PW   PBX  PBC
                           (   1   4   3   4   0   0   0)

     celldm(1)=   9.465808  celldm(2)=   0.000000  celldm(3)=   0.000000
     celldm(4)=   0.000000  celldm(5)=   0.000000  celldm(6)=   0.000000

     crystal axes: (cart. coord. in units of alat)
               a(1) = (   1.000000   0.000000   0.000000 )  
               a(2) = (   0.000000   0.866026   0.000000 )  
               a(3) = (   0.000000   0.000000   5.989112 )  

     reciprocal axes: (cart. coord. in units 2 pi/alat)
               b(1) = (  1.000000  0.000000  0.000000 )  
               b(2) = (  0.000000  1.154700  0.000000 )  
               b(3) = (  0.000000  0.000000  0.166970 )  


     PseudoPot. # 1 for B  read from file:
     ./B.pbe-n-kjpaw_psl.1.0.0.UPF
     MD5 check sum: 8c825a5969375aca5c2c6ad5945b3059
     Pseudo is Projector augmented-wave + core cor, Zval =  3.0
     Generated using &quot;atomic&quot; code by A. Dal Corso  v.6.3
     Shape of augmentation charge: PSQ
     Using radial grid of 1059 points,  4 beta functions with: 
                l(1) =   0
                l(2) =   0
                l(3) =   1
                l(4) =   1
     Q(r) pseudized with 0 coefficients 


     PseudoPot. # 2 for N  read from file:
     ./N.pbe-n-kjpaw_psl.1.0.0.UPF
     MD5 check sum: 14c48229446f9f2d411169a3abcbc3fa
     Pseudo is Projector augmented-wave + core cor, Zval =  5.0
     Generated using &quot;atomic&quot; code by A. Dal Corso  v.6.3
     Shape of augmentation charge: PSQ
     Using radial grid of 1085 points,  4 beta functions with: 
                l(1) =   0
                l(2) =   0
                l(3) =   1
                l(4) =   1
     Q(r) pseudized with 0 coefficients 


     PseudoPot. # 3 for O  read from file:
     ./O.pbe-n-kjpaw_psl.1.0.0.UPF
     MD5 check sum: e99d9cef9b487d1ca56f5b95ecd0fd7a
     Pseudo is Projector augmented-wave + core cor, Zval =  6.0
     Generated using &quot;atomic&quot; code by A. Dal Corso  v.6.3
     Shape of augmentation charge: PSQ
     Using radial grid of 1095 points,  4 beta functions with: 
                l(1) =   0
                l(2) =   0
                l(3) =   1
                l(4) =   1
     Q(r) pseudized with 0 coefficients 


     PseudoPot. # 4 for H  read from file:
     ./H.pbe-kjpaw_psl.1.0.0.UPF
     MD5 check sum: d81a744832360e4a8af0b0b5b123bc2a
     Pseudo is Projector augmented-wave, Zval =  1.0
     Generated using &quot;atomic&quot; code by A. Dal Corso  v.6.3MaX
     Shape of augmentation charge: PSQ
     Using radial grid of  929 points,  2 beta functions with: 
                l(1) =   0
                l(2) =   0
     Q(r) pseudized with 0 coefficients 


     atomic species   valence    mass     pseudopotential
        B              3.00    10.81100     B ( 1.00)
        N              5.00    14.00670     N ( 1.00)
        O              6.00    15.99900     O ( 1.00)
        H              1.00     1.00784     H ( 1.00)

      2 Sym. Ops. (no inversion) found



   Cartesian axes

     site n.     atom                  positions (alat units)
         1           B   tau(   1) = (   0.7500000   0.1443379   1.1978224  )
         2           B   tau(   2) = (   0.2500000   0.1443379   1.1978224  )
         3           B   tau(   3) = (   0.0000000   0.5773507   1.1978224  )
         4           B   tau(   4) = (   0.5000000   0.5773507   1.1978224  )
         5           N   tau(   5) = (   0.7500000   0.7216877   1.1978224  )
         6           N   tau(   6) = (   0.2500000   0.7216877   1.1978224  )
         7           N   tau(   7) = (   0.0000000   0.2886749   1.1978224  )
         8           N   tau(   8) = (   0.5000000   0.2886749   1.1978224  )
         9           O   tau(   9) = (   0.0000000   0.0000000   1.8765864  )
        10           H   tau(  10) = (   0.0000000   0.1511154   1.7596250  )
        11           H   tau(  11) = (   0.0000000   0.7149102   1.7596250  )

     number of k points=     9
                       cart. coord. in units 2pi/alat
        k(    1) = (   0.0000000   0.0000000   0.0000000), wk =   0.0800000
        k(    2) = (   0.0000000   0.2309401   0.0000000), wk =   0.1600000
        k(    3) = (   0.0000000   0.4618801   0.0000000), wk =   0.1600000
        k(    4) = (   0.2000000   0.0000000   0.0000000), wk =   0.1600000
        k(    5) = (   0.2000000   0.2309401   0.0000000), wk =   0.3200000
        k(    6) = (   0.2000000   0.4618801   0.0000000), wk =   0.3200000
        k(    7) = (   0.4000000   0.0000000   0.0000000), wk =   0.1600000
        k(    8) = (   0.4000000   0.2309401   0.0000000), wk =   0.3200000
        k(    9) = (   0.4000000   0.4618801   0.0000000), wk =   0.3200000

     Dense  grid:   219497 G-vectors     FFT dimensions: (  45,  40, 270)

     Estimated max dynamical RAM per process >     473.30 MB

     Check: negative core charge=   -0.000008

     Initial potential from superposition of free atoms

     starting charge      39.9988, renormalised to      40.0000

     negative rho (up, down):  4.688E-03 0.000E+00
     Starting wfcs are   38 randomized atomic wfcs
     Checking if some PAW data can be deallocated... 

     total cpu time spent up to now is       10.6 secs

     per-process dynamical memory:   282.0 Mb

     Self-consistent Calculation

     iteration #  1     ecut=    51.45 Ry     beta= 0.70
     Davidson diagonalization with overlap
     ethr =  1.00E-02,  avg # of iterations =  9.1

     negative rho (up, down):  8.868E-03 0.000E+00

     total cpu time spent up to now is       32.9 secs

     total energy              =    -202.74867654 Ry
     estimated scf accuracy    <       2.06403338 Ry

     iteration #  2     ecut=    51.45 Ry     beta= 0.70
     Davidson diagonalization with overlap
     ethr =  5.16E-03,  avg # of iterations =  4.9

     negative rho (up, down):  8.919E-03 0.000E+00

     total cpu time spent up to now is       50.3 secs

     total energy              =    -203.21376584 Ry
     estimated scf accuracy    <       1.28051580 Ry

     iteration #  3     ecut=    51.45 Ry     beta= 0.70
     Davidson diagonalization with overlap
     ethr =  3.20E-03,  avg # of iterations =  4.1

     negative rho (up, down):  1.047E-02 0.000E+00

     total cpu time spent up to now is       64.6 secs

     total energy              =    -203.46116629 Ry
     estimated scf accuracy    <       0.01400163 Ry

     iteration #  4     ecut=    51.45 Ry     beta= 0.70
     Davidson diagonalization with overlap
     ethr =  3.50E-05,  avg # of iterations = 13.6

     negative rho (up, down):  1.066E-02 0.000E+00

     total cpu time spent up to now is       94.6 secs

     total energy              =    -203.48731384 Ry
     estimated scf accuracy    <       0.03263353 Ry

     iteration #  5     ecut=    51.45 Ry     beta= 0.70
     Davidson diagonalization with overlap
     ethr =  3.50E-05,  avg # of iterations =  4.2

     negative rho (up, down):  1.113E-02 0.000E+00

     total cpu time spent up to now is      108.7 secs

     total energy              =    -203.48825743 Ry
     estimated scf accuracy    <       0.00453234 Ry

     iteration #  6     ecut=    51.45 Ry     beta= 0.70
     Davidson diagonalization with overlap
     ethr =  1.13E-05,  avg # of iterations =  3.9

     negative rho (up, down):  1.136E-02 0.000E+00

     total cpu time spent up to now is      123.1 secs

     total energy              =    -203.48903609 Ry
     estimated scf accuracy    <       0.00008388 Ry

     iteration #  7     ecut=    51.45 Ry     beta= 0.70
     Davidson diagonalization with overlap
     ethr =  2.10E-07,  avg # of iterations =  5.9

     negative rho (up, down):  1.136E-02 0.000E+00

     total cpu time spent up to now is      143.2 secs

     total energy              =    -203.48924487 Ry
     estimated scf accuracy    <       0.00050890 Ry

     iteration #  8     ecut=    51.45 Ry     beta= 0.70
     Davidson diagonalization with overlap
     ethr =  2.10E-07,  avg # of iterations =  4.0

     negative rho (up, down):  1.136E-02 0.000E+00

     total cpu time spent up to now is      157.4 secs

     total energy              =    -203.48921980 Ry
     estimated scf accuracy    <       0.00016285 Ry

     iteration #  9     ecut=    51.45 Ry     beta= 0.70
     Davidson diagonalization with overlap
     ethr =  2.10E-07,  avg # of iterations =  2.8

     negative rho (up, down):  1.135E-02 0.000E+00

     total cpu time spent up to now is      170.3 secs

     total energy              =    -203.48921001 Ry
     estimated scf accuracy    <       0.00005934 Ry

     iteration # 10     ecut=    51.45 Ry     beta= 0.70
     Davidson diagonalization with overlap
     ethr =  1.48E-07,  avg # of iterations =  3.8

     negative rho (up, down):  1.135E-02 0.000E+00

     total cpu time spent up to now is      183.6 secs

     total energy              =    -203.48921722 Ry
     estimated scf accuracy    <       0.00000519 Ry

     iteration # 11     ecut=    51.45 Ry     beta= 0.70
     Davidson diagonalization with overlap
     ethr =  1.30E-08,  avg # of iterations =  4.9

     negative rho (up, down):  1.135E-02 0.000E+00

     total cpu time spent up to now is      198.6 secs

     total energy              =    -203.48922111 Ry
     estimated scf accuracy    <       0.00000375 Ry

     iteration # 12     ecut=    51.45 Ry     beta= 0.70
     Davidson diagonalization with overlap
     ethr =  9.36E-09,  avg # of iterations =  1.7

     negative rho (up, down):  1.135E-02 0.000E+00

     total cpu time spent up to now is      210.7 secs

     total energy              =    -203.48922081 Ry
     estimated scf accuracy    <       0.00000112 Ry

     iteration # 13     ecut=    51.45 Ry     beta= 0.70
     Davidson diagonalization with overlap
     ethr =  2.81E-09,  avg # of iterations =  4.3

     negative rho (up, down):  1.135E-02 0.000E+00

     total cpu time spent up to now is      224.9 secs

     End of self-consistent calculation

          k = 0.0000 0.0000 0.0000 ( 27515 PWs)   bands (ev):

   -24.1749 -23.2430 -20.2895 -20.2739 -20.1548 -14.4653 -13.1830 -13.1755
   -11.8721 -11.4539 -11.4461 -10.8453  -9.7116  -7.9934  -6.9037  -6.9031
    -6.7032  -6.6911  -6.4731  -5.8865  -1.0725  -0.7548  -0.1757   0.1659
     0.1797   0.5289   1.0784   1.4751   2.0092   2.2532   3.1657   3.4213
     3.9952

          k = 0.0000 0.2309 0.0000 ( 27395 PWs)   bands (ev):

   -24.1698 -23.0515 -20.6651 -20.2438 -20.2334 -13.7767 -13.7731 -13.6378
   -11.9352 -10.7117 -10.7063 -10.5833  -9.5067  -7.9852  -7.6909  -7.2683
    -7.2380  -6.6330  -6.6188  -5.8752  -0.7040  -0.1942  -0.1682   0.1529
     0.2815   0.8497   1.3988   1.7938   2.3158   2.5566   3.3303   3.5332
     3.7511

          k = 0.0000 0.4619 0.0000 ( 27368 PWs)   bands (ev):

   -24.1616 -22.4924 -21.6301 -20.1761 -20.1645 -14.3821 -14.3787 -12.0364
   -11.7555  -9.8476  -9.8422  -9.8244  -9.5703  -8.9257  -8.6519  -8.0892
    -7.9063  -6.5111  -6.5057  -5.8567  -0.7050  -0.6790   0.2894   1.0845
     1.7399   1.8434   1.9408   2.3459   2.7390   3.0905   3.2039   3.4402
     3.6241

          k = 0.2000 0.0000 0.0000 ( 27406 PWs)   bands (ev):

   -24.1744 -23.0992 -21.1501 -20.0659 -19.6868 -14.3498 -13.5682 -12.4097
   -12.0757 -11.8682 -10.6525 -10.3011 -10.2611  -8.1214  -7.8155  -7.4951
    -7.1929  -6.3399  -5.9544  -5.7330  -0.8882  -0.7082  -0.6941   0.0514
     0.7603   1.3119   1.5358   1.7144   2.2337   2.4879   2.7174   3.4001
     3.6422

          k = 0.2000 0.2309 0.0000 ( 27419 PWs)   bands (ev):

   -24.1693 -22.9094 -21.0196 -20.5567 -19.8254 -14.0130 -13.5576 -12.7345
   -11.9345 -11.4989 -10.3933 -10.0474  -9.7844  -8.1972  -8.0328  -7.7007
    -7.5431  -7.0845  -6.0189  -5.8722  -0.7515  -0.4547   0.2217   0.3965
     1.0688   1.1383   1.6345   2.0320   2.5334   2.7899   2.9335   3.6290
     3.8043

          k = 0.2000 0.4619 0.0000 ( 27374 PWs)   bands (ev):

   -24.1612 -22.3561 -21.5052 -20.6630 -20.2015 -14.1368 -13.6388 -12.0343
   -11.7714 -10.2075  -9.7823  -9.6413  -9.5066  -9.4275  -8.4960  -8.4870
    -7.9103  -7.2355  -6.5609  -5.8875  -0.4720   0.2306   0.5273   1.2807
     1.8709   2.0086   2.1016   2.5762   2.9764   3.2670   3.3692   3.5281
     3.7004

          k = 0.4000 0.0000 0.0000 ( 27454 PWs)   bands (ev):

   -24.1736 -22.6760 -22.0014 -19.8278 -19.5976 -14.0130 -13.5504 -12.6224
   -11.8699 -11.4993 -10.5545 -10.0858  -9.1693  -9.0915  -8.9045  -7.9855
    -7.9343  -5.9950  -5.9657  -5.6014  -0.8873  -0.7306  -0.1884   0.6147
     1.3071   1.4906   1.8969   2.0655   2.4316   2.5951   2.9393   3.1541
     3.1853

          k = 0.4000 0.2309 0.0000 ( 27447 PWs)   bands (ev):

   -24.1686 -22.4927 -21.8336 -20.2701 -19.9284 -13.5341 -13.3803 -11.9450
   -11.8772 -11.2320 -11.2030  -9.8356  -9.5726  -8.9385  -8.8660  -8.0888
    -7.9228  -6.6711  -6.1588  -5.9496  -0.4079   0.0320   0.1889   0.9347
     1.5781   1.7822   2.0313   2.3494   2.7425   2.8289   3.2154   3.3580
     3.4737

          k = 0.4000 0.4619 0.0000 ( 27403 PWs)   bands (ev):

   -24.1607 -21.9607 -21.3540 -21.1500 -20.6463 -13.1099 -12.2763 -12.0776
   -12.0237 -10.7633 -10.4741 -10.3016  -9.2407  -9.1112  -8.9904  -8.2989
    -8.0485  -7.7809  -7.2184  -5.9313   0.5700   1.0609   1.5123   1.6055
     1.8213   2.3714   2.6538   2.7169   3.2130   3.4341   3.6452   3.6979
     3.7539

     highest occupied, lowest unoccupied level (ev):    -5.6014   -1.0725

!    total energy              =    -203.48922129 Ry
     total all-electron energy =      -790.488685 Ry
     estimated scf accuracy    <       0.00000014 Ry

     The total energy is the sum of the following terms:
     one-electron contribution =   -1854.14918308 Ry
     hartree contribution      =     934.42292424 Ry
     xc contribution           =     -44.16910746 Ry
     ewald contribution        =     822.71451836 Ry
     one-center paw contrib.   =     -62.30837334 Ry

     convergence has been achieved in  13 iterations

     Writing all to output data dir ./hBN_water_Oup_Hdown.save/

     init_run     :     10.08s CPU     10.26s WALL (       1 calls)
     electrons    :    212.70s CPU    214.32s WALL (       1 calls)

     Called by init_run:
     wfcinit      :      5.34s CPU      5.40s WALL (       1 calls)
     potinit      :      1.81s CPU      1.83s WALL (       1 calls)
     hinit0       :      2.72s CPU      2.76s WALL (       1 calls)

     Called by electrons:
     c_bands      :    177.17s CPU    177.84s WALL (      13 calls)
     sum_band     :     27.15s CPU     27.59s WALL (      13 calls)
     v_of_rho     :      3.04s CPU      3.07s WALL (      14 calls)
     newd         :      1.98s CPU      2.40s WALL (      14 calls)
     PAW_pot      :      3.50s CPU      3.50s WALL (      14 calls)
     mix_rho      :      0.39s CPU      0.40s WALL (      13 calls)

     Called by c_bands:
     init_us_2    :      1.82s CPU      1.84s WALL (     243 calls)
     init_us_2:cp :      1.82s CPU      1.84s WALL (     243 calls)
     cegterg      :    173.99s CPU    174.18s WALL (     117 calls)

     Called by *egterg:
     cdiaghg      :      0.73s CPU      0.74s WALL (     721 calls)
     h_psi        :    140.53s CPU    140.66s WALL (     730 calls)
     s_psi        :      7.29s CPU      7.30s WALL (     730 calls)
     g_psi        :      0.62s CPU      0.63s WALL (     604 calls)

     Called by h_psi:
     h_psi:calbec :      6.64s CPU      6.64s WALL (     730 calls)
     vloc_psi     :    126.13s CPU    126.22s WALL (     730 calls)
     add_vuspsi   :      7.25s CPU      7.25s WALL (     730 calls)

     General routines
     calbec       :      8.60s CPU      8.61s WALL (     847 calls)
     fft          :      0.82s CPU      0.85s WALL (     154 calls)
     ffts         :      0.07s CPU      0.07s WALL (      13 calls)
     fftw         :    137.37s CPU    137.46s WALL (   26127 calls)

     Parallel routines

     PWSCF        :   3m43.02s CPU   3m45.28s WALL


   This run was terminated on:  18:43:36  20Oct2022            

=------------------------------------------------------------------------------=
   JOB DONE.
=------------------------------------------------------------------------------=
