
     Program PWSCF v.7.1 starts on 20Oct2022 at 23: 1:23 
        Git branch: HEAD
        Last git commit: 564a7b486665e8dd0223d6e514b84195d1a96c10
        Last git commit date: Tue Jun 14 16:16:48 2022 +0000
        Last git commit subject: Merge branch 'update_version_number' into 'develop

     This program is part of the open-source Quantum ESPRESSO suite
     for quantum simulation of materials; please cite
         "P. Giannozzi et al., J. Phys.:Condens. Matter 21 395502 (2009);
         "P. Giannozzi et al., J. Phys.:Condens. Matter 29 465901 (2017);
         "P. Giannozzi et al., J. Chem. Phys. 152 154105 (2020);
          URL http://www.quantum-espresso.org", 
     in publications or presentations arising from this work. More details at
     http://www.quantum-espresso.org/quote

     Parallel version (MPI & OpenMP), running on     128 processor cores
     Number of MPI processes:               128
     Threads/MPI process:                     1

     MPI processes distributed on     1 nodes
     969401 MiB available memory on the printing compute node when the environment starts

     Waiting for input...
     Reading input from standard input

     Current dimensions of program PWSCF are:
     Max number of different atomic species (ntypx) = 10
     Max number of k-points (npk) =  40000
     Max angular momentum in pseudopotentials (lmaxx) =  4
     file N.pbe-n-kjpaw_psl.1.0.0.UPF: wavefunction(s)  2S renormalized
     file O.pbe-n-kjpaw_psl.1.0.0.UPF: wavefunction(s)  2S 2P renormalized
     file H.pbe-kjpaw_psl.1.0.0.UPF: wavefunction(s)  1S renormalized
     Message from routine setup:
     using ibrav=0 with symmetry is DISCOURAGED, use correct ibrav instead

     R & G space division:  proc/nbgrp/npool/nimage =     128
     Subspace diagonalization in iterative solution of the eigenvalue problem:
     a serial algorithm will be used


     Parallelization info
     --------------------
     sticks:   dense  smooth     PW     G-vecs:    dense   smooth      PW
     Min           9       9      2                 1673     1673     214
     Max          10      10      3                 1734     1734     275
     Sum        1271    1271    345               219497   219497   31463

     Using Slab Decomposition



     bravais-lattice index     =            0
     lattice parameter (alat)  =       9.4658  a.u.
     unit-cell volume          =    4399.1244 (a.u.)^3
     number of atoms/cell      =           11
     number of atomic types    =            4
     number of electrons       =        40.00
     number of Kohn-Sham states=           33
     kinetic-energy cutoff     =      51.4490  Ry
     charge density cutoff     =     205.7961  Ry
     scf convergence threshold =      1.0E-06
     mixing beta               =       0.7000
     number of iterations used =            8  plain     mixing
     Exchange-correlation= SLA  PW   PBX  PBC
                           (   1   4   3   4   0   0   0)

     celldm(1)=   9.465808  celldm(2)=   0.000000  celldm(3)=   0.000000
     celldm(4)=   0.000000  celldm(5)=   0.000000  celldm(6)=   0.000000

     crystal axes: (cart. coord. in units of alat)
               a(1) = (   1.000000   0.000000   0.000000 )  
               a(2) = (   0.000000   0.866026   0.000000 )  
               a(3) = (   0.000000   0.000000   5.989112 )  

     reciprocal axes: (cart. coord. in units 2 pi/alat)
               b(1) = (  1.000000  0.000000  0.000000 )  
               b(2) = (  0.000000  1.154700  0.000000 )  
               b(3) = (  0.000000  0.000000  0.166970 )  


     PseudoPot. # 1 for B  read from file:
     ./B.pbe-n-kjpaw_psl.1.0.0.UPF
     MD5 check sum: 8c825a5969375aca5c2c6ad5945b3059
     Pseudo is Projector augmented-wave + core cor, Zval =  3.0
     Generated using &quot;atomic&quot; code by A. Dal Corso  v.6.3
     Shape of augmentation charge: PSQ
     Using radial grid of 1059 points,  4 beta functions with: 
                l(1) =   0
                l(2) =   0
                l(3) =   1
                l(4) =   1
     Q(r) pseudized with 0 coefficients 


     PseudoPot. # 2 for N  read from file:
     ./N.pbe-n-kjpaw_psl.1.0.0.UPF
     MD5 check sum: 14c48229446f9f2d411169a3abcbc3fa
     Pseudo is Projector augmented-wave + core cor, Zval =  5.0
     Generated using &quot;atomic&quot; code by A. Dal Corso  v.6.3
     Shape of augmentation charge: PSQ
     Using radial grid of 1085 points,  4 beta functions with: 
                l(1) =   0
                l(2) =   0
                l(3) =   1
                l(4) =   1
     Q(r) pseudized with 0 coefficients 


     PseudoPot. # 3 for O  read from file:
     ./O.pbe-n-kjpaw_psl.1.0.0.UPF
     MD5 check sum: e99d9cef9b487d1ca56f5b95ecd0fd7a
     Pseudo is Projector augmented-wave + core cor, Zval =  6.0
     Generated using &quot;atomic&quot; code by A. Dal Corso  v.6.3
     Shape of augmentation charge: PSQ
     Using radial grid of 1095 points,  4 beta functions with: 
                l(1) =   0
                l(2) =   0
                l(3) =   1
                l(4) =   1
     Q(r) pseudized with 0 coefficients 


     PseudoPot. # 4 for H  read from file:
     ./H.pbe-kjpaw_psl.1.0.0.UPF
     MD5 check sum: d81a744832360e4a8af0b0b5b123bc2a
     Pseudo is Projector augmented-wave, Zval =  1.0
     Generated using &quot;atomic&quot; code by A. Dal Corso  v.6.3MaX
     Shape of augmentation charge: PSQ
     Using radial grid of  929 points,  2 beta functions with: 
                l(1) =   0
                l(2) =   0
     Q(r) pseudized with 0 coefficients 


     atomic species   valence    mass     pseudopotential
        B              3.00    10.81100     B ( 1.00)
        N              5.00    14.00670     N ( 1.00)
        O              6.00    15.99900     O ( 1.00)
        H              1.00     1.00784     H ( 1.00)

      2 Sym. Ops. (no inversion) found



   Cartesian axes

     site n.     atom                  positions (alat units)
         1           B   tau(   1) = (   0.7500000   0.1443379   1.1978224  )
         2           B   tau(   2) = (   0.2500000   0.1443379   1.1978224  )
         3           B   tau(   3) = (   0.0000000   0.5773507   1.1978224  )
         4           B   tau(   4) = (   0.5000000   0.5773507   1.1978224  )
         5           N   tau(   5) = (   0.7500000   0.7216877   1.1978224  )
         6           N   tau(   6) = (   0.2500000   0.7216877   1.1978224  )
         7           N   tau(   7) = (   0.0000000   0.2886749   1.1978224  )
         8           N   tau(   8) = (   0.5000000   0.2886749   1.1978224  )
         9           O   tau(   9) = (   0.0000000   0.0000000   1.8765864  )
        10           H   tau(  10) = (   0.0000000   0.1511154   1.7596250  )
        11           H   tau(  11) = (   0.0000000   0.7149102   1.7596250  )

     number of k points=     4
                       cart. coord. in units 2pi/alat
        k(    1) = (   0.0000000   0.0000000   0.0000000), wk =   0.2222222
        k(    2) = (   0.0000000   0.3849001   0.0000000), wk =   0.4444444
        k(    3) = (   0.3333333   0.0000000   0.0000000), wk =   0.4444444
        k(    4) = (   0.3333333   0.3849001   0.0000000), wk =   0.8888889

     Dense  grid:   219497 G-vectors     FFT dimensions: (  45,  40, 270)

     Estimated max dynamical RAM per process >       4.58 MB

     Estimated total dynamical RAM >     585.67 MB

     Check: negative core charge=   -0.000008

     Initial potential from superposition of free atoms

     starting charge      39.9988, renormalised to      40.0000

     negative rho (up, down):  4.688E-03 0.000E+00
     Starting wfcs are   38 randomized atomic wfcs
     Checking if some PAW data can be deallocated... 

     total cpu time spent up to now is        1.6 secs

     per-process dynamical memory:   113.9 Mb

     Self-consistent Calculation

     iteration #  1     ecut=    51.45 Ry     beta= 0.70
     Davidson diagonalization with overlap
     ethr =  1.00E-02,  avg # of iterations =  9.5

     negative rho (up, down):  8.853E-03 0.000E+00

     total cpu time spent up to now is        2.2 secs

     total energy              =    -202.74829918 Ry
     estimated scf accuracy    <       2.06434438 Ry

     iteration #  2     ecut=    51.45 Ry     beta= 0.70
     Davidson diagonalization with overlap
     ethr =  5.16E-03,  avg # of iterations =  5.0

     negative rho (up, down):  8.748E-03 0.000E+00

     total cpu time spent up to now is        2.5 secs

     total energy              =    -203.23045324 Ry
     estimated scf accuracy    <       1.19552010 Ry

     iteration #  3     ecut=    51.45 Ry     beta= 0.70
     Davidson diagonalization with overlap
     ethr =  2.99E-03,  avg # of iterations =  4.0

     negative rho (up, down):  1.058E-02 0.000E+00

     total cpu time spent up to now is        2.7 secs

     total energy              =    -203.45229047 Ry
     estimated scf accuracy    <       0.01938840 Ry

     iteration #  4     ecut=    51.45 Ry     beta= 0.70
     Davidson diagonalization with overlap
     ethr =  4.85E-05,  avg # of iterations = 12.5

     negative rho (up, down):  1.073E-02 0.000E+00

     total cpu time spent up to now is        3.2 secs

     total energy              =    -203.48801645 Ry
     estimated scf accuracy    <       0.07306803 Ry

     iteration #  5     ecut=    51.45 Ry     beta= 0.70
     Davidson diagonalization with overlap
     ethr =  4.85E-05,  avg # of iterations =  4.2

     negative rho (up, down):  1.112E-02 0.000E+00

     total cpu time spent up to now is        3.6 secs

     total energy              =    -203.48531537 Ry
     estimated scf accuracy    <       0.01515502 Ry

     iteration #  6     ecut=    51.45 Ry     beta= 0.70
     Davidson diagonalization with overlap
     ethr =  3.79E-05,  avg # of iterations =  4.0

     negative rho (up, down):  1.140E-02 0.000E+00

     total cpu time spent up to now is        3.8 secs

     total energy              =    -203.48837955 Ry
     estimated scf accuracy    <       0.00011694 Ry

     iteration #  7     ecut=    51.45 Ry     beta= 0.70
     Davidson diagonalization with overlap
     ethr =  2.92E-07,  avg # of iterations =  7.0

     negative rho (up, down):  1.137E-02 0.000E+00

     total cpu time spent up to now is        4.2 secs

     total energy              =    -203.48838132 Ry
     estimated scf accuracy    <       0.00009700 Ry

     iteration #  8     ecut=    51.45 Ry     beta= 0.70
     Davidson diagonalization with overlap
     ethr =  2.43E-07,  avg # of iterations =  3.8

     negative rho (up, down):  1.136E-02 0.000E+00

     total cpu time spent up to now is        4.4 secs

     total energy              =    -203.48838941 Ry
     estimated scf accuracy    <       0.00000684 Ry

     iteration #  9     ecut=    51.45 Ry     beta= 0.70
     Davidson diagonalization with overlap
     ethr =  1.71E-08,  avg # of iterations =  4.8

     negative rho (up, down):  1.136E-02 0.000E+00

     total cpu time spent up to now is        4.7 secs

     total energy              =    -203.48839419 Ry
     estimated scf accuracy    <       0.00000219 Ry

     iteration # 10     ecut=    51.45 Ry     beta= 0.70
     Davidson diagonalization with overlap
     ethr =  5.48E-09,  avg # of iterations =  2.0

     negative rho (up, down):  1.136E-02 0.000E+00

     total cpu time spent up to now is        5.0 secs

     End of self-consistent calculation

          k = 0.0000 0.0000 0.0000 ( 27515 PWs)   bands (ev):

   -24.1774 -23.2393 -20.2854 -20.2698 -20.1505 -14.4627 -13.1793 -13.1719
   -11.8741 -11.4510 -11.4434 -10.8421  -9.7077  -7.9960  -6.8995  -6.8991
    -6.6993  -6.6869  -6.4687  -5.8893  -1.0719  -0.7529  -0.1755   0.1681
     0.1820   0.5288   1.0782   1.4747   2.0088   2.2529   3.1654   3.4213
     3.9961

          k = 0.0000 0.3849 0.0000 ( 27379 PWs)   bands (ev):

   -24.1663 -22.7134 -21.2983 -20.1911 -20.1799 -14.2323 -14.2290 -12.4469
   -12.0078 -10.1260 -10.0642 -10.0600  -9.1520  -8.8742  -8.2220  -7.8866
    -7.7903  -6.5419  -6.5339  -5.8646  -0.5755  -0.5408  -0.0842   0.7305
     1.4010   1.4861   1.9606   2.3390   2.3691   2.8669   3.0900   3.6022
     3.8925

          k = 0.3333 0.0000 0.0000 ( 27446 PWs)   bands (ev):

   -24.1762 -22.8431 -21.7283 -19.9121 -19.5714 -14.1452 -13.4852 -12.7368
   -11.8715 -11.0910 -11.0480 -10.3110  -9.4894  -8.8056  -8.3811  -7.9301
    -7.6724  -6.1104  -5.9741  -5.5581  -0.9076  -0.7262  -0.4037   0.4109
     1.1623   1.6757   1.8001   2.0643   2.1482   2.6644   2.9023   2.9802
     3.4724

          k = 0.3333 0.3849 0.0000 ( 27419 PWs)   bands (ev):

   -24.1655 -22.3326 -21.2978 -20.9748 -20.2460 -13.6364 -12.4556 -12.4343
   -12.0046 -10.8815 -10.3590  -9.8703  -9.6152  -9.1521  -8.4667  -8.2391
    -7.9251  -7.6455  -6.6377  -5.9287  -0.0939   0.4953   1.1765   1.3014
     1.5218   2.0376   2.4161   2.6115   3.0051   3.0279   3.4386   3.5921
     3.7315

     highest occupied, lowest unoccupied level (ev):    -5.5581   -1.0719

!    total energy              =    -203.48839386 Ry
     total all-electron energy =      -790.487857 Ry
     estimated scf accuracy    <       0.00000058 Ry

     The total energy is the sum of the following terms:
     one-electron contribution =   -1854.15713293 Ry
     hartree contribution      =     934.43436098 Ry
     xc contribution           =     -44.17172684 Ry
     ewald contribution        =     822.71451836 Ry
     one-center paw contrib.   =     -62.30841343 Ry

     convergence has been achieved in  10 iterations

     Writing all to output data dir ./hBN_water_Oup_Hdown.save/

     init_run     :      0.39s CPU      0.61s WALL (       1 calls)
     electrons    :      2.87s CPU      3.36s WALL (       1 calls)

     Called by init_run:
     wfcinit      :      0.10s CPU      0.26s WALL (       1 calls)
     potinit      :      0.06s CPU      0.07s WALL (       1 calls)
     hinit0       :      0.18s CPU      0.21s WALL (       1 calls)

     Called by electrons:
     c_bands      :      2.18s CPU      2.41s WALL (      10 calls)
     sum_band     :      0.39s CPU      0.40s WALL (      10 calls)
     v_of_rho     :      0.05s CPU      0.07s WALL (      11 calls)
     newd         :      0.03s CPU      0.04s WALL (      11 calls)
     PAW_pot      :      0.16s CPU      0.17s WALL (      11 calls)
     mix_rho      :      0.06s CPU      0.06s WALL (      10 calls)

     Called by c_bands:
     init_us_2    :      0.01s CPU      0.01s WALL (      84 calls)
     init_us_2:cp :      0.01s CPU      0.01s WALL (      84 calls)
     cegterg      :      2.15s CPU      2.18s WALL (      40 calls)

     Called by *egterg:
     cdiaghg      :      0.31s CPU      0.31s WALL (     267 calls)
     h_psi        :      1.63s CPU      1.65s WALL (     271 calls)
     s_psi        :      0.03s CPU      0.03s WALL (     271 calls)
     g_psi        :      0.00s CPU      0.00s WALL (     227 calls)

     Called by h_psi:
     h_psi:calbec :      0.09s CPU      0.09s WALL (     271 calls)
     vloc_psi     :      1.49s CPU      1.51s WALL (     271 calls)
     add_vuspsi   :      0.04s CPU      0.04s WALL (     271 calls)

     General routines
     calbec       :      0.12s CPU      0.12s WALL (     311 calls)
     fft          :      0.14s CPU      0.18s WALL (     121 calls)
     ffts         :      0.01s CPU      0.01s WALL (      10 calls)
     fftw         :      1.73s CPU      1.75s WALL (    9270 calls)

     Parallel routines

     PWSCF        :      3.93s CPU      5.77s WALL


   This run was terminated on:  23: 1:29  20Oct2022            

=------------------------------------------------------------------------------=
   JOB DONE.
=------------------------------------------------------------------------------=
