[1666305273.693997] [rustyamd2:2186784:0]       rdmacm_cm.c:917  UCX  ERROR rdma_create_event_channel failed: Operation not permitted

     Program PWSCF v.7.1 starts on 20Oct2022 at 18:34:33 
        Git branch: HEAD
        Last git commit: 564a7b486665e8dd0223d6e514b84195d1a96c10
        Last git commit date: Tue Jun 14 16:16:48 2022 +0000
        Last git commit subject: Merge branch 'update_version_number' into 'develop

     This program is part of the open-source Quantum ESPRESSO suite
     for quantum simulation of materials; please cite
         "P. Giannozzi et al., J. Phys.:Condens. Matter 21 395502 (2009);
         "P. Giannozzi et al., J. Phys.:Condens. Matter 29 465901 (2017);
         "P. Giannozzi et al., J. Chem. Phys. 152 154105 (2020);
          URL http://www.quantum-espresso.org", 
     in publications or presentations arising from this work. More details at
     http://www.quantum-espresso.org/quote

     Parallel version (MPI & OpenMP), running on       1 processor cores
     Number of MPI processes:                 1
     Threads/MPI process:                     1

     MPI processes distributed on     1 nodes
     448035 MiB available memory on the printing compute node when the environment starts

     Waiting for input...
     Reading input from standard input

     Current dimensions of program PWSCF are:
     Max number of different atomic species (ntypx) = 10
     Max number of k-points (npk) =  40000
     Max angular momentum in pseudopotentials (lmaxx) =  4
     file N.pbe-n-kjpaw_psl.1.0.0.UPF: wavefunction(s)  2S renormalized
     file O.pbe-n-kjpaw_psl.1.0.0.UPF: wavefunction(s)  2S 2P renormalized
     file H.pbe-kjpaw_psl.1.0.0.UPF: wavefunction(s)  1S renormalized
     Message from routine setup:
     using ibrav=0 with symmetry is DISCOURAGED, use correct ibrav instead

     Subspace diagonalization in iterative solution of the eigenvalue problem:
     a serial algorithm will be used


     G-vector sticks info
     --------------------
     sticks:   dense  smooth     PW     G-vecs:    dense   smooth      PW
     Sum        1271    1271    345               219497   219497   31463

     Using Slab Decomposition



     bravais-lattice index     =            0
     lattice parameter (alat)  =       9.4658  a.u.
     unit-cell volume          =    4399.1244 (a.u.)^3
     number of atoms/cell      =           11
     number of atomic types    =            4
     number of electrons       =        40.00
     number of Kohn-Sham states=           33
     kinetic-energy cutoff     =      51.4490  Ry
     charge density cutoff     =     205.7961  Ry
     scf convergence threshold =      1.0E-06
     mixing beta               =       0.7000
     number of iterations used =            8  plain     mixing
     Exchange-correlation= SLA  PW   PBX  PBC
                           (   1   4   3   4   0   0   0)

     celldm(1)=   9.465808  celldm(2)=   0.000000  celldm(3)=   0.000000
     celldm(4)=   0.000000  celldm(5)=   0.000000  celldm(6)=   0.000000

     crystal axes: (cart. coord. in units of alat)
               a(1) = (   1.000000   0.000000   0.000000 )  
               a(2) = (   0.000000   0.866026   0.000000 )  
               a(3) = (   0.000000   0.000000   5.989112 )  

     reciprocal axes: (cart. coord. in units 2 pi/alat)
               b(1) = (  1.000000  0.000000  0.000000 )  
               b(2) = (  0.000000  1.154700  0.000000 )  
               b(3) = (  0.000000  0.000000  0.166970 )  


     PseudoPot. # 1 for B  read from file:
     ./B.pbe-n-kjpaw_psl.1.0.0.UPF
     MD5 check sum: 8c825a5969375aca5c2c6ad5945b3059
     Pseudo is Projector augmented-wave + core cor, Zval =  3.0
     Generated using &quot;atomic&quot; code by A. Dal Corso  v.6.3
     Shape of augmentation charge: PSQ
     Using radial grid of 1059 points,  4 beta functions with: 
                l(1) =   0
                l(2) =   0
                l(3) =   1
                l(4) =   1
     Q(r) pseudized with 0 coefficients 


     PseudoPot. # 2 for N  read from file:
     ./N.pbe-n-kjpaw_psl.1.0.0.UPF
     MD5 check sum: 14c48229446f9f2d411169a3abcbc3fa
     Pseudo is Projector augmented-wave + core cor, Zval =  5.0
     Generated using &quot;atomic&quot; code by A. Dal Corso  v.6.3
     Shape of augmentation charge: PSQ
     Using radial grid of 1085 points,  4 beta functions with: 
                l(1) =   0
                l(2) =   0
                l(3) =   1
                l(4) =   1
     Q(r) pseudized with 0 coefficients 


     PseudoPot. # 3 for O  read from file:
     ./O.pbe-n-kjpaw_psl.1.0.0.UPF
     MD5 check sum: e99d9cef9b487d1ca56f5b95ecd0fd7a
     Pseudo is Projector augmented-wave + core cor, Zval =  6.0
     Generated using &quot;atomic&quot; code by A. Dal Corso  v.6.3
     Shape of augmentation charge: PSQ
     Using radial grid of 1095 points,  4 beta functions with: 
                l(1) =   0
                l(2) =   0
                l(3) =   1
                l(4) =   1
     Q(r) pseudized with 0 coefficients 


     PseudoPot. # 4 for H  read from file:
     ./H.pbe-kjpaw_psl.1.0.0.UPF
     MD5 check sum: d81a744832360e4a8af0b0b5b123bc2a
     Pseudo is Projector augmented-wave, Zval =  1.0
     Generated using &quot;atomic&quot; code by A. Dal Corso  v.6.3MaX
     Shape of augmentation charge: PSQ
     Using radial grid of  929 points,  2 beta functions with: 
                l(1) =   0
                l(2) =   0
     Q(r) pseudized with 0 coefficients 


     atomic species   valence    mass     pseudopotential
        B              3.00    10.81100     B ( 1.00)
        N              5.00    14.00670     N ( 1.00)
        O              6.00    15.99900     O ( 1.00)
        H              1.00     1.00784     H ( 1.00)

      2 Sym. Ops. (no inversion) found



   Cartesian axes

     site n.     atom                  positions (alat units)
         1           B   tau(   1) = (   0.7500000   0.1443379   1.1978224  )
         2           B   tau(   2) = (   0.2500000   0.1443379   1.1978224  )
         3           B   tau(   3) = (   0.0000000   0.5773507   1.1978224  )
         4           B   tau(   4) = (   0.5000000   0.5773507   1.1978224  )
         5           N   tau(   5) = (   0.7500000   0.7216877   1.1978224  )
         6           N   tau(   6) = (   0.2500000   0.7216877   1.1978224  )
         7           N   tau(   7) = (   0.0000000   0.2886749   1.1978224  )
         8           N   tau(   8) = (   0.5000000   0.2886749   1.1978224  )
         9           O   tau(   9) = (   0.0000000   0.0000000   1.8765864  )
        10           H   tau(  10) = (   0.0000000   0.1511154   1.7596250  )
        11           H   tau(  11) = (   0.0000000   0.7149102   1.7596250  )

     number of k points=     4
                       cart. coord. in units 2pi/alat
        k(    1) = (   0.0000000   0.0000000   0.0000000), wk =   0.2222222
        k(    2) = (   0.0000000   0.3849001   0.0000000), wk =   0.4444444
        k(    3) = (   0.3333333   0.0000000   0.0000000), wk =   0.4444444
        k(    4) = (   0.3333333   0.3849001   0.0000000), wk =   0.8888889

     Dense  grid:   219497 G-vectors     FFT dimensions: (  45,  40, 270)

     Estimated max dynamical RAM per process >     404.28 MB

     Check: negative core charge=   -0.000008

     Initial potential from superposition of free atoms

     starting charge      39.9988, renormalised to      40.0000

     negative rho (up, down):  4.688E-03 0.000E+00
     Starting wfcs are   38 randomized atomic wfcs
     Checking if some PAW data can be deallocated... 

     total cpu time spent up to now is        7.5 secs

     per-process dynamical memory:   211.6 Mb

     Self-consistent Calculation

     iteration #  1     ecut=    51.45 Ry     beta= 0.70
     Davidson diagonalization with overlap
     ethr =  1.00E-02,  avg # of iterations = 10.2

     negative rho (up, down):  8.857E-03 0.000E+00

     total cpu time spent up to now is       18.3 secs

     total energy              =    -202.74682318 Ry
     estimated scf accuracy    <       2.06605948 Ry

     iteration #  2     ecut=    51.45 Ry     beta= 0.70
     Davidson diagonalization with overlap
     ethr =  5.17E-03,  avg # of iterations =  5.5

     negative rho (up, down):  8.953E-03 0.000E+00

     total cpu time spent up to now is       26.7 secs

     total energy              =    -203.21386046 Ry
     estimated scf accuracy    <       1.28596840 Ry

     iteration #  3     ecut=    51.45 Ry     beta= 0.70
     Davidson diagonalization with overlap
     ethr =  3.21E-03,  avg # of iterations =  2.5

     negative rho (up, down):  1.040E-02 0.000E+00

     total cpu time spent up to now is       33.2 secs

     total energy              =    -203.45470760 Ry
     estimated scf accuracy    <       0.01552360 Ry

     iteration #  4     ecut=    51.45 Ry     beta= 0.70
     Davidson diagonalization with overlap
     c_bands:  1 eigenvalues not converged
     ethr =  3.88E-05,  avg # of iterations = 12.5

     negative rho (up, down):  1.056E-02 0.000E+00

     total cpu time spent up to now is       46.8 secs

     total energy              =    -203.48864172 Ry
     estimated scf accuracy    <       0.05040477 Ry

     iteration #  5     ecut=    51.45 Ry     beta= 0.70
     Davidson diagonalization with overlap
     ethr =  3.88E-05,  avg # of iterations =  4.0

     negative rho (up, down):  1.111E-02 0.000E+00

     total cpu time spent up to now is       53.5 secs

     total energy              =    -203.48560816 Ry
     estimated scf accuracy    <       0.01252575 Ry

     iteration #  6     ecut=    51.45 Ry     beta= 0.70
     Davidson diagonalization with overlap
     ethr =  3.13E-05,  avg # of iterations =  4.0

     negative rho (up, down):  1.138E-02 0.000E+00

     total cpu time spent up to now is       60.3 secs

     total energy              =    -203.48832442 Ry
     estimated scf accuracy    <       0.00009811 Ry

     iteration #  7     ecut=    51.45 Ry     beta= 0.70
     Davidson diagonalization with overlap
     ethr =  2.45E-07,  avg # of iterations =  7.5

     negative rho (up, down):  1.137E-02 0.000E+00

     total cpu time spent up to now is       69.4 secs

     total energy              =    -203.48838614 Ry
     estimated scf accuracy    <       0.00010162 Ry

     iteration #  8     ecut=    51.45 Ry     beta= 0.70
     Davidson diagonalization with overlap
     ethr =  2.45E-07,  avg # of iterations =  1.8

     negative rho (up, down):  1.136E-02 0.000E+00

     total cpu time spent up to now is       75.4 secs

     total energy              =    -203.48838438 Ry
     estimated scf accuracy    <       0.00002361 Ry

     iteration #  9     ecut=    51.45 Ry     beta= 0.70
     Davidson diagonalization with overlap
     ethr =  5.90E-08,  avg # of iterations =  4.2

     negative rho (up, down):  1.136E-02 0.000E+00

     total cpu time spent up to now is       82.3 secs

     total energy              =    -203.48839406 Ry
     estimated scf accuracy    <       0.00000195 Ry

     iteration # 10     ecut=    51.45 Ry     beta= 0.70
     Davidson diagonalization with overlap
     ethr =  4.87E-09,  avg # of iterations =  4.0

     negative rho (up, down):  1.136E-02 0.000E+00

     total cpu time spent up to now is       89.2 secs

     End of self-consistent calculation

          k = 0.0000 0.0000 0.0000 ( 27515 PWs)   bands (ev):

   -24.1764 -23.2393 -20.2854 -20.2700 -20.1504 -14.4626 -13.1792 -13.1720
   -11.8733 -11.4509 -11.4434 -10.8421  -9.7077  -7.9950  -6.8996  -6.8991
    -6.6994  -6.6870  -6.4687  -5.8882  -1.0719  -0.7529  -0.1755   0.1681
     0.1820   0.5288   1.0782   1.4747   2.0088   2.2529   3.1655   3.4213
     3.9957

          k = 0.0000 0.3849 0.0000 ( 27379 PWs)   bands (ev):

   -24.1653 -22.7134 -21.2984 -20.1910 -20.1800 -14.2323 -14.2290 -12.4469
   -12.0070 -10.1260 -10.0641 -10.0600  -9.1520  -8.8742  -8.2219  -7.8857
    -7.7903  -6.5420  -6.5338  -5.8635  -0.5755  -0.5409  -0.0842   0.7305
     1.4010   1.4861   1.9606   2.3390   2.3691   2.8669   3.0901   3.6022
     3.8925

          k = 0.3333 0.0000 0.0000 ( 27446 PWs)   bands (ev):

   -24.1752 -22.8431 -21.7283 -19.9121 -19.5714 -14.1452 -13.4852 -12.7367
   -11.8708 -11.0911 -11.0479 -10.3110  -9.4894  -8.8056  -8.3811  -7.9291
    -7.6724  -6.1105  -5.9730  -5.5581  -0.9077  -0.7262  -0.4037   0.4108
     1.1623   1.6758   1.8001   2.0643   2.1482   2.6644   2.9023   2.9802
     3.4724

          k = 0.3333 0.3849 0.0000 ( 27419 PWs)   bands (ev):

   -24.1645 -22.3327 -21.2979 -20.9748 -20.2460 -13.6364 -12.4557 -12.4342
   -12.0039 -10.8815 -10.3590  -9.8703  -9.6152  -9.1521  -8.4667  -8.2389
    -7.9245  -7.6453  -6.6378  -5.9276  -0.0940   0.4953   1.1764   1.3014
     1.5218   2.0376   2.4161   2.6115   3.0051   3.0279   3.4386   3.5917
     3.7314

     highest occupied, lowest unoccupied level (ev):    -5.5581   -1.0719

!    total energy              =    -203.48839440 Ry
     total all-electron energy =      -790.487858 Ry
     estimated scf accuracy    <       0.00000012 Ry

     The total energy is the sum of the following terms:
     one-electron contribution =   -1854.15682331 Ry
     hartree contribution      =     934.43339774 Ry
     xc contribution           =     -44.17110594 Ry
     ewald contribution        =     822.71451836 Ry
     one-center paw contrib.   =     -62.30838125 Ry

     convergence has been achieved in  10 iterations

     Writing all to output data dir ./hBN_water_Oup_Hdown.save/

     init_run     :      7.17s CPU      7.32s WALL (       1 calls)
     electrons    :     80.84s CPU     81.64s WALL (       1 calls)

     Called by init_run:
     wfcinit      :      2.36s CPU      2.40s WALL (       1 calls)
     potinit      :      1.80s CPU      1.83s WALL (       1 calls)
     hinit0       :      2.80s CPU      2.83s WALL (       1 calls)

     Called by electrons:
     c_bands      :     64.04s CPU     64.15s WALL (      10 calls)
     sum_band     :     10.41s CPU     10.71s WALL (      10 calls)
     v_of_rho     :      2.39s CPU      2.42s WALL (      11 calls)
     newd         :      1.52s CPU      1.92s WALL (      11 calls)
     PAW_pot      :      2.74s CPU      2.75s WALL (      11 calls)
     mix_rho      :      0.27s CPU      0.28s WALL (      10 calls)

     Called by c_bands:
     init_us_2    :      0.64s CPU      0.65s WALL (      84 calls)
     init_us_2:cp :      0.64s CPU      0.65s WALL (      84 calls)
     cegterg      :     62.94s CPU     63.03s WALL (      40 calls)

     Called by *egterg:
     cdiaghg      :      0.28s CPU      0.28s WALL (     265 calls)
     h_psi        :     50.71s CPU     50.77s WALL (     269 calls)
     s_psi        :      2.73s CPU      2.74s WALL (     269 calls)
     g_psi        :      0.23s CPU      0.23s WALL (     225 calls)

     Called by h_psi:
     h_psi:calbec :      2.48s CPU      2.48s WALL (     269 calls)
     vloc_psi     :     45.29s CPU     45.33s WALL (     269 calls)
     add_vuspsi   :      2.76s CPU      2.76s WALL (     269 calls)

     General routines
     calbec       :      3.15s CPU      3.15s WALL (     309 calls)
     fft          :      0.65s CPU      0.68s WALL (     121 calls)
     ffts         :      0.05s CPU      0.05s WALL (      10 calls)
     fftw         :     48.96s CPU     49.00s WALL (    9306 calls)

     Parallel routines

     PWSCF        :   1m28.22s CPU   1m29.34s WALL


   This run was terminated on:  18:36: 3  20Oct2022            

=------------------------------------------------------------------------------=
   JOB DONE.
=------------------------------------------------------------------------------=
