
     Program PWSCF v.7.1 starts on 25Oct2022 at 20: 0:46 
        Git branch: HEAD
        Last git commit: 564a7b486665e8dd0223d6e514b84195d1a96c10
        Last git commit date: Tue Jun 14 16:16:48 2022 +0000
        Last git commit subject: Merge branch 'update_version_number' into 'develop

     This program is part of the open-source Quantum ESPRESSO suite
     for quantum simulation of materials; please cite
         "P. Giannozzi et al., J. Phys.:Condens. Matter 21 395502 (2009);
         "P. Giannozzi et al., J. Phys.:Condens. Matter 29 465901 (2017);
         "P. Giannozzi et al., J. Chem. Phys. 152 154105 (2020);
          URL http://www.quantum-espresso.org", 
     in publications or presentations arising from this work. More details at
     http://www.quantum-espresso.org/quote

     Parallel version (MPI & OpenMP), running on     128 processor cores
     Number of MPI processes:               128
     Threads/MPI process:                     1

     MPI processes distributed on     1 nodes
     990129 MiB available memory on the printing compute node when the environment starts

     Reading input from scf.in

     Current dimensions of program PWSCF are:
     Max number of different atomic species (ntypx) = 10
     Max number of k-points (npk) =  40000
     Max angular momentum in pseudopotentials (lmaxx) =  4
     file N.pbe-n-kjpaw_psl.1.0.0.UPF: wavefunction(s)  2S renormalized
     file O.pbe-n-kjpaw_psl.1.0.0.UPF: wavefunction(s)  2S 2P renormalized
     file H.pbe-kjpaw_psl.1.0.0.UPF: wavefunction(s)  1S renormalized
     Message from routine setup:
     using ibrav=0 with symmetry is DISCOURAGED, use correct ibrav instead

     R & G space division:  proc/nbgrp/npool/nimage =     128
     Subspace diagonalization in iterative solution of the eigenvalue problem:
     one sub-group per band group will be used
     scalapack distributed-memory algorithm (size of sub-group: 10* 10 procs)


     Parallelization info
     --------------------
     sticks:   dense  smooth     PW     G-vecs:    dense   smooth      PW
     Min         635     635    160               109655   109655   13948
     Max         636     636    161               109660   109660   13955
     Sum       81311   81311  20563             14036177 14036177 1785661

     Using Slab Decomposition



     bravais-lattice index     =            0
     lattice parameter (alat)  =      75.7265  a.u.
     unit-cell volume          =  281543.9584 (a.u.)^3
     number of atoms/cell      =          515
     number of atomic types    =            4
     number of electrons       =      2056.00
     number of Kohn-Sham states=         1049
     kinetic-energy cutoff     =      51.4490  Ry
     charge density cutoff     =     205.7961  Ry
     scf convergence threshold =      1.0E-06
     mixing beta               =       0.7000
     number of iterations used =            8  plain     mixing
     Exchange-correlation= SLA  PW   PBX  PBC
                           (   1   4   3   4   0   0   0)

     celldm(1)=  75.726466  celldm(2)=   0.000000  celldm(3)=   0.000000
     celldm(4)=   0.000000  celldm(5)=   0.000000  celldm(6)=   0.000000

     crystal axes: (cart. coord. in units of alat)
               a(1) = (   1.000000   0.000000   0.000000 )  
               a(2) = (   0.000000   0.866026   0.000000 )  
               a(3) = (   0.000000   0.000000   0.748639 )  

     reciprocal axes: (cart. coord. in units 2 pi/alat)
               b(1) = (  1.000000  0.000000  0.000000 )  
               b(2) = (  0.000000  1.154700  0.000000 )  
               b(3) = (  0.000000  0.000000  1.335757 )  


     PseudoPot. # 1 for B  read from file:
     ./B.pbe-n-kjpaw_psl.1.0.0.UPF
     MD5 check sum: 8c825a5969375aca5c2c6ad5945b3059
     Pseudo is Projector augmented-wave + core cor, Zval =  3.0
     Generated using &quot;atomic&quot; code by A. Dal Corso  v.6.3
     Shape of augmentation charge: PSQ
     Using radial grid of 1059 points,  4 beta functions with: 
                l(1) =   0
                l(2) =   0
                l(3) =   1
                l(4) =   1
     Q(r) pseudized with 0 coefficients 


     PseudoPot. # 2 for N  read from file:
     ./N.pbe-n-kjpaw_psl.1.0.0.UPF
     MD5 check sum: 14c48229446f9f2d411169a3abcbc3fa
     Pseudo is Projector augmented-wave + core cor, Zval =  5.0
     Generated using &quot;atomic&quot; code by A. Dal Corso  v.6.3
     Shape of augmentation charge: PSQ
     Using radial grid of 1085 points,  4 beta functions with: 
                l(1) =   0
                l(2) =   0
                l(3) =   1
                l(4) =   1
     Q(r) pseudized with 0 coefficients 


     PseudoPot. # 3 for O  read from file:
     ./O.pbe-n-kjpaw_psl.1.0.0.UPF
     MD5 check sum: e99d9cef9b487d1ca56f5b95ecd0fd7a
     Pseudo is Projector augmented-wave + core cor, Zval =  6.0
     Generated using &quot;atomic&quot; code by A. Dal Corso  v.6.3
     Shape of augmentation charge: PSQ
     Using radial grid of 1095 points,  4 beta functions with: 
                l(1) =   0
                l(2) =   0
                l(3) =   1
                l(4) =   1
     Q(r) pseudized with 0 coefficients 


     PseudoPot. # 4 for H  read from file:
     ./H.pbe-kjpaw_psl.1.0.0.UPF
     MD5 check sum: d81a744832360e4a8af0b0b5b123bc2a
     Pseudo is Projector augmented-wave, Zval =  1.0
     Generated using &quot;atomic&quot; code by A. Dal Corso  v.6.3MaX
     Shape of augmentation charge: PSQ
     Using radial grid of  929 points,  2 beta functions with: 
                l(1) =   0
                l(2) =   0
     Q(r) pseudized with 0 coefficients 


     atomic species   valence    mass     pseudopotential
        B              3.00    10.81100     B ( 1.00)
        N              5.00    14.00670     N ( 1.00)
        O              6.00    15.99900     O ( 1.00)
        H              1.00     1.00784     H ( 1.00)

      2 Sym. Ops. (no inversion) found ( 1 have fractional translation)



   Cartesian axes

     site n.     atom                  positions (alat units)
         1           B   tau(   1) = (   0.9687500   0.0180422   0.1497278  )
         2           B   tau(   2) = (   0.9687500   0.1262954   0.1497278  )
         3           B   tau(   3) = (   0.9687500   0.2345486   0.1497278  )
         4           B   tau(   4) = (   0.9687500   0.3428018   0.1497278  )
         5           B   tau(   5) = (   0.9687500   0.4510550   0.1497278  )
         6           B   tau(   6) = (   0.9687500   0.5593082   0.1497278  )
         7           B   tau(   7) = (   0.9687500   0.6675614   0.1497278  )
         8           B   tau(   8) = (   0.9687500   0.7758146   0.1497278  )
         9           B   tau(   9) = (   0.0937500   0.0180422   0.1497278  )
        10           B   tau(  10) = (   0.0937500   0.1262954   0.1497278  )
        11           B   tau(  11) = (   0.0937500   0.2345486   0.1497278  )
        12           B   tau(  12) = (   0.0937500   0.3428018   0.1497278  )
        13           B   tau(  13) = (   0.0937500   0.4510550   0.1497278  )
        14           B   tau(  14) = (   0.0937500   0.5593082   0.1497278  )
        15           B   tau(  15) = (   0.0937500   0.6675614   0.1497278  )
        16           B   tau(  16) = (   0.0937500   0.7758146   0.1497278  )
        17           B   tau(  17) = (   0.2187500   0.0180422   0.1497278  )
        18           B   tau(  18) = (   0.2187500   0.1262954   0.1497278  )
        19           B   tau(  19) = (   0.2187500   0.2345486   0.1497278  )
        20           B   tau(  20) = (   0.2187500   0.3428018   0.1497278  )
        21           B   tau(  21) = (   0.2187500   0.4510550   0.1497278  )
        22           B   tau(  22) = (   0.2187500   0.5593082   0.1497278  )
        23           B   tau(  23) = (   0.2187500   0.6675614   0.1497278  )
        24           B   tau(  24) = (   0.2187500   0.7758146   0.1497278  )
        25           B   tau(  25) = (   0.3437500   0.0180422   0.1497278  )
        26           B   tau(  26) = (   0.3437500   0.1262954   0.1497278  )
        27           B   tau(  27) = (   0.3437500   0.2345486   0.1497278  )
        28           B   tau(  28) = (   0.3437500   0.3428018   0.1497278  )
        29           B   tau(  29) = (   0.3437500   0.4510550   0.1497278  )
        30           B   tau(  30) = (   0.3437500   0.5593082   0.1497278  )
        31           B   tau(  31) = (   0.3437500   0.6675614   0.1497278  )
        32           B   tau(  32) = (   0.3437500   0.7758146   0.1497278  )
        33           B   tau(  33) = (   0.4687500   0.0180422   0.1497278  )
        34           B   tau(  34) = (   0.4687500   0.1262954   0.1497278  )
        35           B   tau(  35) = (   0.4687500   0.2345486   0.1497278  )
        36           B   tau(  36) = (   0.4687500   0.3428018   0.1497278  )
        37           B   tau(  37) = (   0.4687500   0.4510550   0.1497278  )
        38           B   tau(  38) = (   0.4687500   0.5593082   0.1497278  )
        39           B   tau(  39) = (   0.4687500   0.6675614   0.1497278  )
        40           B   tau(  40) = (   0.4687500   0.7758146   0.1497278  )
        41           B   tau(  41) = (   0.5937500   0.0180422   0.1497278  )
        42           B   tau(  42) = (   0.5937500   0.1262954   0.1497278  )
        43           B   tau(  43) = (   0.5937500   0.2345486   0.1497278  )
        44           B   tau(  44) = (   0.5937500   0.3428018   0.1497278  )
        45           B   tau(  45) = (   0.5937500   0.4510550   0.1497278  )
        46           B   tau(  46) = (   0.5937500   0.5593082   0.1497278  )
        47           B   tau(  47) = (   0.5937500   0.6675614   0.1497278  )
        48           B   tau(  48) = (   0.5937500   0.7758146   0.1497278  )
        49           B   tau(  49) = (   0.7187500   0.0180422   0.1497278  )
        50           B   tau(  50) = (   0.7187500   0.1262954   0.1497278  )
        51           B   tau(  51) = (   0.7187500   0.2345486   0.1497278  )
        52           B   tau(  52) = (   0.7187500   0.3428018   0.1497278  )
        53           B   tau(  53) = (   0.7187500   0.4510550   0.1497278  )
        54           B   tau(  54) = (   0.7187500   0.5593082   0.1497278  )
        55           B   tau(  55) = (   0.7187500   0.6675614   0.1497278  )
        56           B   tau(  56) = (   0.7187500   0.7758146   0.1497278  )
        57           B   tau(  57) = (   0.8437500   0.0180422   0.1497278  )
        58           B   tau(  58) = (   0.8437500   0.1262954   0.1497278  )
        59           B   tau(  59) = (   0.8437500   0.2345486   0.1497278  )
        60           B   tau(  60) = (   0.8437500   0.3428018   0.1497278  )
        61           B   tau(  61) = (   0.8437500   0.4510550   0.1497278  )
        62           B   tau(  62) = (   0.8437500   0.5593082   0.1497278  )
        63           B   tau(  63) = (   0.8437500   0.6675614   0.1497278  )
        64           B   tau(  64) = (   0.8437500   0.7758146   0.1497278  )
        65           B   tau(  65) = (   0.0312500   0.0180422   0.1497278  )
        66           B   tau(  66) = (   0.0312500   0.1262954   0.1497278  )
        67           B   tau(  67) = (   0.0312500   0.2345486   0.1497278  )
        68           B   tau(  68) = (   0.0312500   0.3428018   0.1497278  )
        69           B   tau(  69) = (   0.0312500   0.4510550   0.1497278  )
        70           B   tau(  70) = (   0.0312500   0.5593082   0.1497278  )
        71           B   tau(  71) = (   0.0312500   0.6675614   0.1497278  )
        72           B   tau(  72) = (   0.0312500   0.7758146   0.1497278  )
        73           B   tau(  73) = (   0.1562500   0.0180422   0.1497278  )
        74           B   tau(  74) = (   0.1562500   0.1262954   0.1497278  )
        75           B   tau(  75) = (   0.1562500   0.2345486   0.1497278  )
        76           B   tau(  76) = (   0.1562500   0.3428018   0.1497278  )
        77           B   tau(  77) = (   0.1562500   0.4510550   0.1497278  )
        78           B   tau(  78) = (   0.1562500   0.5593082   0.1497278  )
        79           B   tau(  79) = (   0.1562500   0.6675614   0.1497278  )
        80           B   tau(  80) = (   0.1562500   0.7758146   0.1497278  )
        81           B   tau(  81) = (   0.2812500   0.0180422   0.1497278  )
        82           B   tau(  82) = (   0.2812500   0.1262954   0.1497278  )
        83           B   tau(  83) = (   0.2812500   0.2345486   0.1497278  )
        84           B   tau(  84) = (   0.2812500   0.3428018   0.1497278  )
        85           B   tau(  85) = (   0.2812500   0.4510550   0.1497278  )
        86           B   tau(  86) = (   0.2812500   0.5593082   0.1497278  )
        87           B   tau(  87) = (   0.2812500   0.6675614   0.1497278  )
        88           B   tau(  88) = (   0.2812500   0.7758146   0.1497278  )
        89           B   tau(  89) = (   0.4062500   0.0180422   0.1497278  )
        90           B   tau(  90) = (   0.4062500   0.1262954   0.1497278  )
        91           B   tau(  91) = (   0.4062500   0.2345486   0.1497278  )
        92           B   tau(  92) = (   0.4062500   0.3428018   0.1497278  )
        93           B   tau(  93) = (   0.4062500   0.4510550   0.1497278  )
        94           B   tau(  94) = (   0.4062500   0.5593082   0.1497278  )
        95           B   tau(  95) = (   0.4062500   0.6675614   0.1497278  )
        96           B   tau(  96) = (   0.4062500   0.7758146   0.1497278  )
        97           B   tau(  97) = (   0.5312500   0.0180422   0.1497278  )
        98           B   tau(  98) = (   0.5312500   0.1262954   0.1497278  )
        99           B   tau(  99) = (   0.5312500   0.2345486   0.1497278  )
       100           B   tau( 100) = (   0.5312500   0.3428018   0.1497278  )
       101           B   tau( 101) = (   0.5312500   0.4510550   0.1497278  )
       102           B   tau( 102) = (   0.5312500   0.5593082   0.1497278  )
       103           B   tau( 103) = (   0.5312500   0.6675614   0.1497278  )
       104           B   tau( 104) = (   0.5312500   0.7758146   0.1497278  )
       105           B   tau( 105) = (   0.6562500   0.0180422   0.1497278  )
       106           B   tau( 106) = (   0.6562500   0.1262954   0.1497278  )
       107           B   tau( 107) = (   0.6562500   0.2345486   0.1497278  )
       108           B   tau( 108) = (   0.6562500   0.3428018   0.1497278  )
       109           B   tau( 109) = (   0.6562500   0.4510550   0.1497278  )
       110           B   tau( 110) = (   0.6562500   0.5593082   0.1497278  )
       111           B   tau( 111) = (   0.6562500   0.6675614   0.1497278  )
       112           B   tau( 112) = (   0.6562500   0.7758146   0.1497278  )
       113           B   tau( 113) = (   0.7812500   0.0180422   0.1497278  )
       114           B   tau( 114) = (   0.7812500   0.1262954   0.1497278  )
       115           B   tau( 115) = (   0.7812500   0.2345486   0.1497278  )
       116           B   tau( 116) = (   0.7812500   0.3428018   0.1497278  )
       117           B   tau( 117) = (   0.7812500   0.4510550   0.1497278  )
       118           B   tau( 118) = (   0.7812500   0.5593082   0.1497278  )
       119           B   tau( 119) = (   0.7812500   0.6675614   0.1497278  )
       120           B   tau( 120) = (   0.7812500   0.7758146   0.1497278  )
       121           B   tau( 121) = (   0.9062500   0.0180422   0.1497278  )
       122           B   tau( 122) = (   0.9062500   0.1262954   0.1497278  )
       123           B   tau( 123) = (   0.9062500   0.2345486   0.1497278  )
       124           B   tau( 124) = (   0.9062500   0.3428018   0.1497278  )
       125           B   tau( 125) = (   0.9062500   0.4510550   0.1497278  )
       126           B   tau( 126) = (   0.9062500   0.5593082   0.1497278  )
       127           B   tau( 127) = (   0.9062500   0.6675614   0.1497278  )
       128           B   tau( 128) = (   0.9062500   0.7758146   0.1497278  )
       129           B   tau( 129) = (   0.0000000   0.8299412   0.1497278  )
       130           B   tau( 130) = (   0.0000000   0.0721688   0.1497278  )
       131           B   tau( 131) = (   0.0000000   0.1804220   0.1497278  )
       132           B   tau( 132) = (   0.0000000   0.2886752   0.1497278  )
       133           B   tau( 133) = (   0.0000000   0.3969284   0.1497278  )
       134           B   tau( 134) = (   0.0000000   0.5051816   0.1497278  )
       135           B   tau( 135) = (   0.0000000   0.6134348   0.1497278  )
       136           B   tau( 136) = (   0.0000000   0.7216880   0.1497278  )
       137           B   tau( 137) = (   0.1250000   0.8299412   0.1497278  )
       138           B   tau( 138) = (   0.1250000   0.0721688   0.1497278  )
       139           B   tau( 139) = (   0.1250000   0.1804220   0.1497278  )
       140           B   tau( 140) = (   0.1250000   0.2886752   0.1497278  )
       141           B   tau( 141) = (   0.1250000   0.3969284   0.1497278  )
       142           B   tau( 142) = (   0.1250000   0.5051816   0.1497278  )
       143           B   tau( 143) = (   0.1250000   0.6134348   0.1497278  )
       144           B   tau( 144) = (   0.1250000   0.7216880   0.1497278  )
       145           B   tau( 145) = (   0.2500000   0.8299412   0.1497278  )
       146           B   tau( 146) = (   0.2500000   0.0721688   0.1497278  )
       147           B   tau( 147) = (   0.2500000   0.1804220   0.1497278  )
       148           B   tau( 148) = (   0.2500000   0.2886752   0.1497278  )
       149           B   tau( 149) = (   0.2500000   0.3969284   0.1497278  )
       150           B   tau( 150) = (   0.2500000   0.5051816   0.1497278  )
       151           B   tau( 151) = (   0.2500000   0.6134348   0.1497278  )
       152           B   tau( 152) = (   0.2500000   0.7216880   0.1497278  )
       153           B   tau( 153) = (   0.3750000   0.8299412   0.1497278  )
       154           B   tau( 154) = (   0.3750000   0.0721688   0.1497278  )
       155           B   tau( 155) = (   0.3750000   0.1804220   0.1497278  )
       156           B   tau( 156) = (   0.3750000   0.2886752   0.1497278  )
       157           B   tau( 157) = (   0.3750000   0.3969284   0.1497278  )
       158           B   tau( 158) = (   0.3750000   0.5051816   0.1497278  )
       159           B   tau( 159) = (   0.3750000   0.6134348   0.1497278  )
       160           B   tau( 160) = (   0.3750000   0.7216880   0.1497278  )
       161           B   tau( 161) = (   0.5000000   0.8299412   0.1497278  )
       162           B   tau( 162) = (   0.5000000   0.0721688   0.1497278  )
       163           B   tau( 163) = (   0.5000000   0.1804220   0.1497278  )
       164           B   tau( 164) = (   0.5000000   0.2886752   0.1497278  )
       165           B   tau( 165) = (   0.5000000   0.3969284   0.1497278  )
       166           B   tau( 166) = (   0.5000000   0.5051816   0.1497278  )
       167           B   tau( 167) = (   0.5000000   0.6134348   0.1497278  )
       168           B   tau( 168) = (   0.5000000   0.7216880   0.1497278  )
       169           B   tau( 169) = (   0.6250000   0.8299412   0.1497278  )
       170           B   tau( 170) = (   0.6250000   0.0721688   0.1497278  )
       171           B   tau( 171) = (   0.6250000   0.1804220   0.1497278  )
       172           B   tau( 172) = (   0.6250000   0.2886752   0.1497278  )
       173           B   tau( 173) = (   0.6250000   0.3969284   0.1497278  )
       174           B   tau( 174) = (   0.6250000   0.5051816   0.1497278  )
       175           B   tau( 175) = (   0.6250000   0.6134348   0.1497278  )
       176           B   tau( 176) = (   0.6250000   0.7216880   0.1497278  )
       177           B   tau( 177) = (   0.7500000   0.8299412   0.1497278  )
       178           B   tau( 178) = (   0.7500000   0.0721688   0.1497278  )
       179           B   tau( 179) = (   0.7500000   0.1804220   0.1497278  )
       180           B   tau( 180) = (   0.7500000   0.2886752   0.1497278  )
       181           B   tau( 181) = (   0.7500000   0.3969284   0.1497278  )
       182           B   tau( 182) = (   0.7500000   0.5051816   0.1497278  )
       183           B   tau( 183) = (   0.7500000   0.6134348   0.1497278  )
       184           B   tau( 184) = (   0.7500000   0.7216880   0.1497278  )
       185           B   tau( 185) = (   0.8750000   0.8299412   0.1497278  )
       186           B   tau( 186) = (   0.8750000   0.0721688   0.1497278  )
       187           B   tau( 187) = (   0.8750000   0.1804220   0.1497278  )
       188           B   tau( 188) = (   0.8750000   0.2886752   0.1497278  )
       189           B   tau( 189) = (   0.8750000   0.3969284   0.1497278  )
       190           B   tau( 190) = (   0.8750000   0.5051816   0.1497278  )
       191           B   tau( 191) = (   0.8750000   0.6134348   0.1497278  )
       192           B   tau( 192) = (   0.8750000   0.7216880   0.1497278  )
       193           B   tau( 193) = (   0.0625000   0.8299412   0.1497278  )
       194           B   tau( 194) = (   0.0625000   0.0721688   0.1497278  )
       195           B   tau( 195) = (   0.0625000   0.1804220   0.1497278  )
       196           B   tau( 196) = (   0.0625000   0.2886752   0.1497278  )
       197           B   tau( 197) = (   0.0625000   0.3969284   0.1497278  )
       198           B   tau( 198) = (   0.0625000   0.5051816   0.1497278  )
       199           B   tau( 199) = (   0.0625000   0.6134348   0.1497278  )
       200           B   tau( 200) = (   0.0625000   0.7216880   0.1497278  )
       201           B   tau( 201) = (   0.1875000   0.8299412   0.1497278  )
       202           B   tau( 202) = (   0.1875000   0.0721688   0.1497278  )
       203           B   tau( 203) = (   0.1875000   0.1804220   0.1497278  )
       204           B   tau( 204) = (   0.1875000   0.2886752   0.1497278  )
       205           B   tau( 205) = (   0.1875000   0.3969284   0.1497278  )
       206           B   tau( 206) = (   0.1875000   0.5051816   0.1497278  )
       207           B   tau( 207) = (   0.1875000   0.6134348   0.1497278  )
       208           B   tau( 208) = (   0.1875000   0.7216880   0.1497278  )
       209           B   tau( 209) = (   0.3125000   0.8299412   0.1497278  )
       210           B   tau( 210) = (   0.3125000   0.0721688   0.1497278  )
       211           B   tau( 211) = (   0.3125000   0.1804220   0.1497278  )
       212           B   tau( 212) = (   0.3125000   0.2886752   0.1497278  )
       213           B   tau( 213) = (   0.3125000   0.3969284   0.1497278  )
       214           B   tau( 214) = (   0.3125000   0.5051816   0.1497278  )
       215           B   tau( 215) = (   0.3125000   0.6134348   0.1497278  )
       216           B   tau( 216) = (   0.3125000   0.7216880   0.1497278  )
       217           B   tau( 217) = (   0.4375000   0.8299412   0.1497278  )
       218           B   tau( 218) = (   0.4375000   0.0721688   0.1497278  )
       219           B   tau( 219) = (   0.4375000   0.1804220   0.1497278  )
       220           B   tau( 220) = (   0.4375000   0.2886752   0.1497278  )
       221           B   tau( 221) = (   0.4375000   0.3969284   0.1497278  )
       222           B   tau( 222) = (   0.4375000   0.5051816   0.1497278  )
       223           B   tau( 223) = (   0.4375000   0.6134348   0.1497278  )
       224           B   tau( 224) = (   0.4375000   0.7216880   0.1497278  )
       225           B   tau( 225) = (   0.5625000   0.8299412   0.1497278  )
       226           B   tau( 226) = (   0.5625000   0.0721688   0.1497278  )
       227           B   tau( 227) = (   0.5625000   0.1804220   0.1497278  )
       228           B   tau( 228) = (   0.5625000   0.2886752   0.1497278  )
       229           B   tau( 229) = (   0.5625000   0.3969284   0.1497278  )
       230           B   tau( 230) = (   0.5625000   0.5051816   0.1497278  )
       231           B   tau( 231) = (   0.5625000   0.6134348   0.1497278  )
       232           B   tau( 232) = (   0.5625000   0.7216880   0.1497278  )
       233           B   tau( 233) = (   0.6875000   0.8299412   0.1497278  )
       234           B   tau( 234) = (   0.6875000   0.0721688   0.1497278  )
       235           B   tau( 235) = (   0.6875000   0.1804220   0.1497278  )
       236           B   tau( 236) = (   0.6875000   0.2886752   0.1497278  )
       237           B   tau( 237) = (   0.6875000   0.3969284   0.1497278  )
       238           B   tau( 238) = (   0.6875000   0.5051816   0.1497278  )
       239           B   tau( 239) = (   0.6875000   0.6134348   0.1497278  )
       240           B   tau( 240) = (   0.6875000   0.7216880   0.1497278  )
       241           B   tau( 241) = (   0.8125000   0.8299412   0.1497278  )
       242           B   tau( 242) = (   0.8125000   0.0721688   0.1497278  )
       243           B   tau( 243) = (   0.8125000   0.1804220   0.1497278  )
       244           B   tau( 244) = (   0.8125000   0.2886752   0.1497278  )
       245           B   tau( 245) = (   0.8125000   0.3969284   0.1497278  )
       246           B   tau( 246) = (   0.8125000   0.5051816   0.1497278  )
       247           B   tau( 247) = (   0.8125000   0.6134348   0.1497278  )
       248           B   tau( 248) = (   0.8125000   0.7216880   0.1497278  )
       249           B   tau( 249) = (   0.9375000   0.8299412   0.1497278  )
       250           B   tau( 250) = (   0.9375000   0.0721688   0.1497278  )
       251           B   tau( 251) = (   0.9375000   0.1804220   0.1497278  )
       252           B   tau( 252) = (   0.9375000   0.2886752   0.1497278  )
       253           B   tau( 253) = (   0.9375000   0.3969284   0.1497278  )
       254           B   tau( 254) = (   0.9375000   0.5051816   0.1497278  )
       255           B   tau( 255) = (   0.9375000   0.6134348   0.1497278  )
       256           B   tau( 256) = (   0.9375000   0.7216880   0.1497278  )
       257           N   tau( 257) = (   0.9687500   0.8479833   0.1497278  )
       258           N   tau( 258) = (   0.9687500   0.0902110   0.1497278  )
       259           N   tau( 259) = (   0.9687500   0.1984642   0.1497278  )
       260           N   tau( 260) = (   0.9687500   0.3067174   0.1497278  )
       261           N   tau( 261) = (   0.9687500   0.4149705   0.1497278  )
       262           N   tau( 262) = (   0.9687500   0.5232237   0.1497278  )
       263           N   tau( 263) = (   0.9687500   0.6314769   0.1497278  )
       264           N   tau( 264) = (   0.9687500   0.7397301   0.1497278  )
       265           N   tau( 265) = (   0.0937500   0.8479833   0.1497278  )
       266           N   tau( 266) = (   0.0937500   0.0902110   0.1497278  )
       267           N   tau( 267) = (   0.0937500   0.1984642   0.1497278  )
       268           N   tau( 268) = (   0.0937500   0.3067174   0.1497278  )
       269           N   tau( 269) = (   0.0937500   0.4149705   0.1497278  )
       270           N   tau( 270) = (   0.0937500   0.5232237   0.1497278  )
       271           N   tau( 271) = (   0.0937500   0.6314769   0.1497278  )
       272           N   tau( 272) = (   0.0937500   0.7397301   0.1497278  )
       273           N   tau( 273) = (   0.2187500   0.8479833   0.1497278  )
       274           N   tau( 274) = (   0.2187500   0.0902110   0.1497278  )
       275           N   tau( 275) = (   0.2187500   0.1984642   0.1497278  )
       276           N   tau( 276) = (   0.2187500   0.3067174   0.1497278  )
       277           N   tau( 277) = (   0.2187500   0.4149705   0.1497278  )
       278           N   tau( 278) = (   0.2187500   0.5232237   0.1497278  )
       279           N   tau( 279) = (   0.2187500   0.6314769   0.1497278  )
       280           N   tau( 280) = (   0.2187500   0.7397301   0.1497278  )
       281           N   tau( 281) = (   0.3437500   0.8479833   0.1497278  )
       282           N   tau( 282) = (   0.3437500   0.0902110   0.1497278  )
       283           N   tau( 283) = (   0.3437500   0.1984642   0.1497278  )
       284           N   tau( 284) = (   0.3437500   0.3067174   0.1497278  )
       285           N   tau( 285) = (   0.3437500   0.4149705   0.1497278  )
       286           N   tau( 286) = (   0.3437500   0.5232237   0.1497278  )
       287           N   tau( 287) = (   0.3437500   0.6314769   0.1497278  )
       288           N   tau( 288) = (   0.3437500   0.7397301   0.1497278  )
       289           N   tau( 289) = (   0.4687500   0.8479833   0.1497278  )
       290           N   tau( 290) = (   0.4687500   0.0902110   0.1497278  )
       291           N   tau( 291) = (   0.4687500   0.1984642   0.1497278  )
       292           N   tau( 292) = (   0.4687500   0.3067174   0.1497278  )
       293           N   tau( 293) = (   0.4687500   0.4149705   0.1497278  )
       294           N   tau( 294) = (   0.4687500   0.5232237   0.1497278  )
       295           N   tau( 295) = (   0.4687500   0.6314769   0.1497278  )
       296           N   tau( 296) = (   0.4687500   0.7397301   0.1497278  )
       297           N   tau( 297) = (   0.5937500   0.8479833   0.1497278  )
       298           N   tau( 298) = (   0.5937500   0.0902110   0.1497278  )
       299           N   tau( 299) = (   0.5937500   0.1984642   0.1497278  )
       300           N   tau( 300) = (   0.5937500   0.3067174   0.1497278  )
       301           N   tau( 301) = (   0.5937500   0.4149705   0.1497278  )
       302           N   tau( 302) = (   0.5937500   0.5232237   0.1497278  )
       303           N   tau( 303) = (   0.5937500   0.6314769   0.1497278  )
       304           N   tau( 304) = (   0.5937500   0.7397301   0.1497278  )
       305           N   tau( 305) = (   0.7187500   0.8479833   0.1497278  )
       306           N   tau( 306) = (   0.7187500   0.0902110   0.1497278  )
       307           N   tau( 307) = (   0.7187500   0.1984642   0.1497278  )
       308           N   tau( 308) = (   0.7187500   0.3067174   0.1497278  )
       309           N   tau( 309) = (   0.7187500   0.4149705   0.1497278  )
       310           N   tau( 310) = (   0.7187500   0.5232237   0.1497278  )
       311           N   tau( 311) = (   0.7187500   0.6314769   0.1497278  )
       312           N   tau( 312) = (   0.7187500   0.7397301   0.1497278  )
       313           N   tau( 313) = (   0.8437500   0.8479833   0.1497278  )
       314           N   tau( 314) = (   0.8437500   0.0902110   0.1497278  )
       315           N   tau( 315) = (   0.8437500   0.1984642   0.1497278  )
       316           N   tau( 316) = (   0.8437500   0.3067174   0.1497278  )
       317           N   tau( 317) = (   0.8437500   0.4149705   0.1497278  )
       318           N   tau( 318) = (   0.8437500   0.5232237   0.1497278  )
       319           N   tau( 319) = (   0.8437500   0.6314769   0.1497278  )
       320           N   tau( 320) = (   0.8437500   0.7397301   0.1497278  )
       321           N   tau( 321) = (   0.0312500   0.8479833   0.1497278  )
       322           N   tau( 322) = (   0.0312500   0.0902110   0.1497278  )
       323           N   tau( 323) = (   0.0312500   0.1984642   0.1497278  )
       324           N   tau( 324) = (   0.0312500   0.3067174   0.1497278  )
       325           N   tau( 325) = (   0.0312500   0.4149705   0.1497278  )
       326           N   tau( 326) = (   0.0312500   0.5232237   0.1497278  )
       327           N   tau( 327) = (   0.0312500   0.6314769   0.1497278  )
       328           N   tau( 328) = (   0.0312500   0.7397301   0.1497278  )
       329           N   tau( 329) = (   0.1562500   0.8479833   0.1497278  )
       330           N   tau( 330) = (   0.1562500   0.0902110   0.1497278  )
       331           N   tau( 331) = (   0.1562500   0.1984642   0.1497278  )
       332           N   tau( 332) = (   0.1562500   0.3067174   0.1497278  )
       333           N   tau( 333) = (   0.1562500   0.4149705   0.1497278  )
       334           N   tau( 334) = (   0.1562500   0.5232237   0.1497278  )
       335           N   tau( 335) = (   0.1562500   0.6314769   0.1497278  )
       336           N   tau( 336) = (   0.1562500   0.7397301   0.1497278  )
       337           N   tau( 337) = (   0.2812500   0.8479833   0.1497278  )
       338           N   tau( 338) = (   0.2812500   0.0902110   0.1497278  )
       339           N   tau( 339) = (   0.2812500   0.1984642   0.1497278  )
       340           N   tau( 340) = (   0.2812500   0.3067174   0.1497278  )
       341           N   tau( 341) = (   0.2812500   0.4149705   0.1497278  )
       342           N   tau( 342) = (   0.2812500   0.5232237   0.1497278  )
       343           N   tau( 343) = (   0.2812500   0.6314769   0.1497278  )
       344           N   tau( 344) = (   0.2812500   0.7397301   0.1497278  )
       345           N   tau( 345) = (   0.4062500   0.8479833   0.1497278  )
       346           N   tau( 346) = (   0.4062500   0.0902110   0.1497278  )
       347           N   tau( 347) = (   0.4062500   0.1984642   0.1497278  )
       348           N   tau( 348) = (   0.4062500   0.3067174   0.1497278  )
       349           N   tau( 349) = (   0.4062500   0.4149705   0.1497278  )
       350           N   tau( 350) = (   0.4062500   0.5232237   0.1497278  )
       351           N   tau( 351) = (   0.4062500   0.6314769   0.1497278  )
       352           N   tau( 352) = (   0.4062500   0.7397301   0.1497278  )
       353           N   tau( 353) = (   0.5312500   0.8479833   0.1497278  )
       354           N   tau( 354) = (   0.5312500   0.0902110   0.1497278  )
       355           N   tau( 355) = (   0.5312500   0.1984642   0.1497278  )
       356           N   tau( 356) = (   0.5312500   0.3067174   0.1497278  )
       357           N   tau( 357) = (   0.5312500   0.4149705   0.1497278  )
       358           N   tau( 358) = (   0.5312500   0.5232237   0.1497278  )
       359           N   tau( 359) = (   0.5312500   0.6314769   0.1497278  )
       360           N   tau( 360) = (   0.5312500   0.7397301   0.1497278  )
       361           N   tau( 361) = (   0.6562500   0.8479833   0.1497278  )
       362           N   tau( 362) = (   0.6562500   0.0902110   0.1497278  )
       363           N   tau( 363) = (   0.6562500   0.1984642   0.1497278  )
       364           N   tau( 364) = (   0.6562500   0.3067174   0.1497278  )
       365           N   tau( 365) = (   0.6562500   0.4149705   0.1497278  )
       366           N   tau( 366) = (   0.6562500   0.5232237   0.1497278  )
       367           N   tau( 367) = (   0.6562500   0.6314769   0.1497278  )
       368           N   tau( 368) = (   0.6562500   0.7397301   0.1497278  )
       369           N   tau( 369) = (   0.7812500   0.8479833   0.1497278  )
       370           N   tau( 370) = (   0.7812500   0.0902110   0.1497278  )
       371           N   tau( 371) = (   0.7812500   0.1984642   0.1497278  )
       372           N   tau( 372) = (   0.7812500   0.3067174   0.1497278  )
       373           N   tau( 373) = (   0.7812500   0.4149705   0.1497278  )
       374           N   tau( 374) = (   0.7812500   0.5232237   0.1497278  )
       375           N   tau( 375) = (   0.7812500   0.6314769   0.1497278  )
       376           N   tau( 376) = (   0.7812500   0.7397301   0.1497278  )
       377           N   tau( 377) = (   0.9062500   0.8479833   0.1497278  )
       378           N   tau( 378) = (   0.9062500   0.0902110   0.1497278  )
       379           N   tau( 379) = (   0.9062500   0.1984642   0.1497278  )
       380           N   tau( 380) = (   0.9062500   0.3067174   0.1497278  )
       381           N   tau( 381) = (   0.9062500   0.4149705   0.1497278  )
       382           N   tau( 382) = (   0.9062500   0.5232237   0.1497278  )
       383           N   tau( 383) = (   0.9062500   0.6314769   0.1497278  )
       384           N   tau( 384) = (   0.9062500   0.7397301   0.1497278  )
       385           N   tau( 385) = (   0.0000000   0.0360844   0.1497278  )
       386           N   tau( 386) = (   0.0000000   0.1443376   0.1497278  )
       387           N   tau( 387) = (   0.0000000   0.2525908   0.1497278  )
       388           N   tau( 388) = (   0.0000000   0.3608439   0.1497278  )
       389           N   tau( 389) = (   0.0000000   0.4690971   0.1497278  )
       390           N   tau( 390) = (   0.0000000   0.5773503   0.1497278  )
       391           N   tau( 391) = (   0.0000000   0.6856035   0.1497278  )
       392           N   tau( 392) = (   0.0000000   0.7938567   0.1497278  )
       393           N   tau( 393) = (   0.1250000   0.0360844   0.1497278  )
       394           N   tau( 394) = (   0.1250000   0.1443376   0.1497278  )
       395           N   tau( 395) = (   0.1250000   0.2525908   0.1497278  )
       396           N   tau( 396) = (   0.1250000   0.3608439   0.1497278  )
       397           N   tau( 397) = (   0.1250000   0.4690971   0.1497278  )
       398           N   tau( 398) = (   0.1250000   0.5773503   0.1497278  )
       399           N   tau( 399) = (   0.1250000   0.6856035   0.1497278  )
       400           N   tau( 400) = (   0.1250000   0.7938567   0.1497278  )
       401           N   tau( 401) = (   0.2500000   0.0360844   0.1497278  )
       402           N   tau( 402) = (   0.2500000   0.1443376   0.1497278  )
       403           N   tau( 403) = (   0.2500000   0.2525908   0.1497278  )
       404           N   tau( 404) = (   0.2500000   0.3608439   0.1497278  )
       405           N   tau( 405) = (   0.2500000   0.4690971   0.1497278  )
       406           N   tau( 406) = (   0.2500000   0.5773503   0.1497278  )
       407           N   tau( 407) = (   0.2500000   0.6856035   0.1497278  )
       408           N   tau( 408) = (   0.2500000   0.7938567   0.1497278  )
       409           N   tau( 409) = (   0.3750000   0.0360844   0.1497278  )
       410           N   tau( 410) = (   0.3750000   0.1443376   0.1497278  )
       411           N   tau( 411) = (   0.3750000   0.2525908   0.1497278  )
       412           N   tau( 412) = (   0.3750000   0.3608439   0.1497278  )
       413           N   tau( 413) = (   0.3750000   0.4690971   0.1497278  )
       414           N   tau( 414) = (   0.3750000   0.5773503   0.1497278  )
       415           N   tau( 415) = (   0.3750000   0.6856035   0.1497278  )
       416           N   tau( 416) = (   0.3750000   0.7938567   0.1497278  )
       417           N   tau( 417) = (   0.5000000   0.0360844   0.1497278  )
       418           N   tau( 418) = (   0.5000000   0.1443376   0.1497278  )
       419           N   tau( 419) = (   0.5000000   0.2525908   0.1497278  )
       420           N   tau( 420) = (   0.5000000   0.3608439   0.1497278  )
       421           N   tau( 421) = (   0.5000000   0.4690971   0.1497278  )
       422           N   tau( 422) = (   0.5000000   0.5773503   0.1497278  )
       423           N   tau( 423) = (   0.5000000   0.6856035   0.1497278  )
       424           N   tau( 424) = (   0.5000000   0.7938567   0.1497278  )
       425           N   tau( 425) = (   0.6250000   0.0360844   0.1497278  )
       426           N   tau( 426) = (   0.6250000   0.1443376   0.1497278  )
       427           N   tau( 427) = (   0.6250000   0.2525908   0.1497278  )
       428           N   tau( 428) = (   0.6250000   0.3608439   0.1497278  )
       429           N   tau( 429) = (   0.6250000   0.4690971   0.1497278  )
       430           N   tau( 430) = (   0.6250000   0.5773503   0.1497278  )
       431           N   tau( 431) = (   0.6250000   0.6856035   0.1497278  )
       432           N   tau( 432) = (   0.6250000   0.7938567   0.1497278  )
       433           N   tau( 433) = (   0.7500000   0.0360844   0.1497278  )
       434           N   tau( 434) = (   0.7500000   0.1443376   0.1497278  )
       435           N   tau( 435) = (   0.7500000   0.2525908   0.1497278  )
       436           N   tau( 436) = (   0.7500000   0.3608439   0.1497278  )
       437           N   tau( 437) = (   0.7500000   0.4690971   0.1497278  )
       438           N   tau( 438) = (   0.7500000   0.5773503   0.1497278  )
       439           N   tau( 439) = (   0.7500000   0.6856035   0.1497278  )
       440           N   tau( 440) = (   0.7500000   0.7938567   0.1497278  )
       441           N   tau( 441) = (   0.8750000   0.0360844   0.1497278  )
       442           N   tau( 442) = (   0.8750000   0.1443376   0.1497278  )
       443           N   tau( 443) = (   0.8750000   0.2525908   0.1497278  )
       444           N   tau( 444) = (   0.8750000   0.3608439   0.1497278  )
       445           N   tau( 445) = (   0.8750000   0.4690971   0.1497278  )
       446           N   tau( 446) = (   0.8750000   0.5773503   0.1497278  )
       447           N   tau( 447) = (   0.8750000   0.6856035   0.1497278  )
       448           N   tau( 448) = (   0.8750000   0.7938567   0.1497278  )
       449           N   tau( 449) = (   0.0625000   0.0360844   0.1497278  )
       450           N   tau( 450) = (   0.0625000   0.1443376   0.1497278  )
       451           N   tau( 451) = (   0.0625000   0.2525908   0.1497278  )
       452           N   tau( 452) = (   0.0625000   0.3608439   0.1497278  )
       453           N   tau( 453) = (   0.0625000   0.4690971   0.1497278  )
       454           N   tau( 454) = (   0.0625000   0.5773503   0.1497278  )
       455           N   tau( 455) = (   0.0625000   0.6856035   0.1497278  )
       456           N   tau( 456) = (   0.0625000   0.7938567   0.1497278  )
       457           N   tau( 457) = (   0.1875000   0.0360844   0.1497278  )
       458           N   tau( 458) = (   0.1875000   0.1443376   0.1497278  )
       459           N   tau( 459) = (   0.1875000   0.2525908   0.1497278  )
       460           N   tau( 460) = (   0.1875000   0.3608439   0.1497278  )
       461           N   tau( 461) = (   0.1875000   0.4690971   0.1497278  )
       462           N   tau( 462) = (   0.1875000   0.5773503   0.1497278  )
       463           N   tau( 463) = (   0.1875000   0.6856035   0.1497278  )
       464           N   tau( 464) = (   0.1875000   0.7938567   0.1497278  )
       465           N   tau( 465) = (   0.3125000   0.0360844   0.1497278  )
       466           N   tau( 466) = (   0.3125000   0.1443376   0.1497278  )
       467           N   tau( 467) = (   0.3125000   0.2525908   0.1497278  )
       468           N   tau( 468) = (   0.3125000   0.3608439   0.1497278  )
       469           N   tau( 469) = (   0.3125000   0.4690971   0.1497278  )
       470           N   tau( 470) = (   0.3125000   0.5773503   0.1497278  )
       471           N   tau( 471) = (   0.3125000   0.6856035   0.1497278  )
       472           N   tau( 472) = (   0.3125000   0.7938567   0.1497278  )
       473           N   tau( 473) = (   0.4375000   0.0360844   0.1497278  )
       474           N   tau( 474) = (   0.4375000   0.1443376   0.1497278  )
       475           N   tau( 475) = (   0.4375000   0.2525908   0.1497278  )
       476           N   tau( 476) = (   0.4375000   0.3608439   0.1497278  )
       477           N   tau( 477) = (   0.4375000   0.4690971   0.1497278  )
       478           N   tau( 478) = (   0.4375000   0.5773503   0.1497278  )
       479           N   tau( 479) = (   0.4375000   0.6856035   0.1497278  )
       480           N   tau( 480) = (   0.4375000   0.7938567   0.1497278  )
       481           N   tau( 481) = (   0.5625000   0.0360844   0.1497278  )
       482           N   tau( 482) = (   0.5625000   0.1443376   0.1497278  )
       483           N   tau( 483) = (   0.5625000   0.2525908   0.1497278  )
       484           N   tau( 484) = (   0.5625000   0.3608439   0.1497278  )
       485           N   tau( 485) = (   0.5625000   0.4690971   0.1497278  )
       486           N   tau( 486) = (   0.5625000   0.5773503   0.1497278  )
       487           N   tau( 487) = (   0.5625000   0.6856035   0.1497278  )
       488           N   tau( 488) = (   0.5625000   0.7938567   0.1497278  )
       489           N   tau( 489) = (   0.6875000   0.0360844   0.1497278  )
       490           N   tau( 490) = (   0.6875000   0.1443376   0.1497278  )
       491           N   tau( 491) = (   0.6875000   0.2525908   0.1497278  )
       492           N   tau( 492) = (   0.6875000   0.3608439   0.1497278  )
       493           N   tau( 493) = (   0.6875000   0.4690971   0.1497278  )
       494           N   tau( 494) = (   0.6875000   0.5773503   0.1497278  )
       495           N   tau( 495) = (   0.6875000   0.6856035   0.1497278  )
       496           N   tau( 496) = (   0.6875000   0.7938567   0.1497278  )
       497           N   tau( 497) = (   0.8125000   0.0360844   0.1497278  )
       498           N   tau( 498) = (   0.8125000   0.1443376   0.1497278  )
       499           N   tau( 499) = (   0.8125000   0.2525908   0.1497278  )
       500           N   tau( 500) = (   0.8125000   0.3608439   0.1497278  )
       501           N   tau( 501) = (   0.8125000   0.4690971   0.1497278  )
       502           N   tau( 502) = (   0.8125000   0.5773503   0.1497278  )
       503           N   tau( 503) = (   0.8125000   0.6856035   0.1497278  )
       504           N   tau( 504) = (   0.8125000   0.7938567   0.1497278  )
       505           N   tau( 505) = (   0.9375000   0.0360844   0.1497278  )
       506           N   tau( 506) = (   0.9375000   0.1443376   0.1497278  )
       507           N   tau( 507) = (   0.9375000   0.2525908   0.1497278  )
       508           N   tau( 508) = (   0.9375000   0.3608439   0.1497278  )
       509           N   tau( 509) = (   0.9375000   0.4690971   0.1497278  )
       510           N   tau( 510) = (   0.9375000   0.5773503   0.1497278  )
       511           N   tau( 511) = (   0.9375000   0.6856035   0.1497278  )
       512           N   tau( 512) = (   0.9375000   0.7938567   0.1497278  )
       513           O   tau( 513) = (   0.3750000   0.3247596   0.2444631  )
       514           H   tau( 514) = (   0.3750000   0.3436490   0.2298429  )
       515           H   tau( 515) = (   0.3750000   0.3058702   0.2298429  )

     number of k points=     4
                       cart. coord. in units 2pi/alat
        k(    1) = (   0.0000000   0.0000000   0.0000000), wk =   0.2222222
        k(    2) = (   0.0000000   0.3849001   0.0000000), wk =   0.4444444
        k(    3) = (   0.3333333   0.0000000   0.0000000), wk =   0.4444444
        k(    4) = (   0.3333333   0.3849001   0.0000000), wk =   0.8888889

     Dense  grid: 14036177 G-vectors     FFT dimensions: ( 360, 300, 270)

     Estimated max dynamical RAM per process >       3.34 GB

     Estimated total dynamical RAM >     427.44 GB

     Check: negative core charge=   -0.000007

     Initial potential from superposition of free atoms

     starting charge    2055.9258, renormalised to    2056.0000

     negative rho (up, down):  2.269E-01 0.000E+00
     Starting wfcs are 2054 randomized atomic wfcs
     Checking if some PAW data can be deallocated... 

     total cpu time spent up to now is      824.2 secs

     Self-consistent Calculation

     iteration #  1     ecut=    51.45 Ry     beta= 0.70
     Davidson diagonalization with overlap
     ethr =  1.00E-02,  avg # of iterations =  3.0

     negative rho (up, down):  5.914E-01 0.000E+00

     total cpu time spent up to now is     2560.5 secs

     total energy              =  -10210.29316811 Ry
     estimated scf accuracy    <     109.07633003 Ry

     iteration #  2     ecut=    51.45 Ry     beta= 0.70
     Davidson diagonalization with overlap
     ethr =  5.31E-03,  avg # of iterations =  3.5

     negative rho (up, down):  6.457E-01 0.000E+00

     total cpu time spent up to now is     4380.8 secs

     total energy              =  -10242.17965179 Ry
     estimated scf accuracy    <      47.76423107 Ry

     iteration #  3     ecut=    51.45 Ry     beta= 0.70
     Davidson diagonalization with overlap
     ethr =  2.32E-03,  avg # of iterations =  2.0

     negative rho (up, down):  7.779E-01 0.000E+00

     total cpu time spent up to now is     5904.7 secs

     total energy              =  -10248.40950032 Ry
     estimated scf accuracy    <       1.20231932 Ry

     iteration #  4     ecut=    51.45 Ry     beta= 0.70
     Davidson diagonalization with overlap
     ethr =  5.85E-05,  avg # of iterations =  6.2

     negative rho (up, down):  7.849E-01 0.000E+00

     total cpu time spent up to now is     8027.6 secs

     total energy              =  -10249.32202108 Ry
     estimated scf accuracy    <       1.53598670 Ry

     iteration #  5     ecut=    51.45 Ry     beta= 0.70
     Davidson diagonalization with overlap
     ethr =  5.85E-05,  avg # of iterations =  5.0

     negative rho (up, down):  7.912E-01 0.000E+00

     total cpu time spent up to now is     9272.4 secs

     total energy              =  -10249.27721538 Ry
     estimated scf accuracy    <       0.38721451 Ry

     iteration #  6     ecut=    51.45 Ry     beta= 0.70
     Davidson diagonalization with overlap
     ethr =  1.88E-05,  avg # of iterations =  2.0

     negative rho (up, down):  8.084E-01 0.000E+00

     total cpu time spent up to now is    10668.5 secs

     total energy              =  -10249.32582152 Ry
     estimated scf accuracy    <       0.02819316 Ry

     iteration #  7     ecut=    51.45 Ry     beta= 0.70
     Davidson diagonalization with overlap
     c_bands:  1 eigenvalues not converged
     c_bands:  1 eigenvalues not converged
     ethr =  1.37E-06,  avg # of iterations = 58.0

     negative rho (up, down):  8.086E-01 0.000E+00

     total cpu time spent up to now is    15281.6 secs

     total energy              =  -10249.33146000 Ry
     estimated scf accuracy    <       0.00065629 Ry

     iteration #  8     ecut=    51.45 Ry     beta= 0.70
     Davidson diagonalization with overlap
     ethr =  3.19E-08,  avg # of iterations =  5.0

     negative rho (up, down):  8.087E-01 0.000E+00

     total cpu time spent up to now is    16912.0 secs

     total energy              =  -10249.33161146 Ry
     estimated scf accuracy    <       0.00003868 Ry

     iteration #  9     ecut=    51.45 Ry     beta= 0.70
     Davidson diagonalization with overlap
     ethr =  1.88E-09,  avg # of iterations =  6.0

     negative rho (up, down):  8.088E-01 0.000E+00

     total cpu time spent up to now is    18832.1 secs

     total energy              =  -10249.33162216 Ry
     estimated scf accuracy    <       0.00003809 Ry

     iteration # 10     ecut=    51.45 Ry     beta= 0.70
     Davidson diagonalization with overlap
     ethr =  1.85E-09,  avg # of iterations =  2.0

     negative rho (up, down):  8.088E-01 0.000E+00

     total cpu time spent up to now is    19997.4 secs

     total energy              =  -10249.33161807 Ry
     estimated scf accuracy    <       0.00001186 Ry

     iteration # 11     ecut=    51.45 Ry     beta= 0.70
     Davidson diagonalization with overlap
     ethr =  5.77E-10,  avg # of iterations =  3.0

     negative rho (up, down):  8.088E-01 0.000E+00

     total cpu time spent up to now is    21754.2 secs

     End of self-consistent calculation

          k = 0.0000 0.0000 0.0000 (****** PWs)   bands (ev):

   -24.1507 -22.3367 -22.2823 -22.2702 -22.2547 -22.2543 -22.2028 -22.1980
   -22.1955 -22.1942 -22.1068 -22.1045 -22.0397 -22.0361 -22.0311 -22.0287
   -22.0280 -22.0271 -21.9773 -21.9770 -21.9721 -21.9716 -21.8312 -21.8297
   -21.8123 -21.8120 -21.8102 -21.8097 -21.7579 -21.7570 -21.7544 -21.7542
   -21.6692 -21.6691 -21.6148 -21.6147 -21.6091 -21.6091 -21.5425 -21.5420
   -21.5415 -21.5414 -21.4550 -21.4535 -21.4534 -21.4524 -21.4514 -21.4511
   -21.3847 -21.3838 -21.3812 -21.3808 -21.1958 -21.1953 -21.1935 -21.1933
   -21.1791 -21.1790 -21.1760 -21.1758 -21.1755 -21.1754 -21.1271 -21.1269
   -21.1217 -21.1216 -20.9901 -20.9898 -20.9736 -20.9734 -20.9714 -20.9714
   -20.9254 -20.9252 -20.9220 -20.9220 -20.8446 -20.8442 -20.8437 -20.8435
   -20.7334 -20.7330 -20.7329 -20.7328 -20.7266 -20.7264 -20.7257 -20.7257
   -20.5963 -20.5961 -20.5465 -20.5463 -20.5411 -20.5411 -20.4604 -20.4602
   -20.4288 -20.4283 -20.4278 -20.4275 -20.4057 -20.4053 -20.4038 -20.4033
   -20.4032 -20.4029 -20.4002 -20.4002 -20.3994 -20.3993 -20.3988 -20.3987
   -20.2373 -20.2372 -20.2368 -20.2368 -20.1770 -20.1767 -20.1759 -20.1759
   -20.0295 -20.0291 -20.0282 -20.0281 -19.9822 -19.9812 -19.9786 -19.9785
   -19.9773 -19.9773 -19.9359 -19.9352 -19.9308 -19.9300 -19.9004 -19.9003
   -19.8884 -19.8881 -19.8876 -19.8874 -19.8572 -19.8571 -19.8545 -19.8544
   -19.8064 -19.8056 -19.8043 -19.8036 -19.7371 -19.7369 -19.7362 -19.7362
   -19.6557 -19.6555 -19.6526 -19.6526 -19.6075 -19.6066 -19.6062 -19.6058
   -19.5761 -19.5759 -19.5751 -19.5751 -19.5608 -19.5607 -19.5581 -19.5581
   -19.4688 -19.4597 -19.4241 -19.4188 -19.4175 -19.4159 -19.3718 -19.3718
   -19.3675 -19.3662 -19.3654 -19.3652 -19.3638 -19.3632 -19.3554 -19.3554
   -19.3475 -19.3473 -19.3470 -19.3469 -19.3113 -19.3104 -19.3100 -19.3084
   -19.3080 -19.3066 -19.3044 -19.3038 -19.3035 -19.3035 -19.3031 -19.3030
   -19.2650 -19.2649 -19.2602 -19.2602 -19.2460 -19.2407 -19.2407 -19.2070
   -19.2031 -19.1748 -19.1748 -19.1733 -19.1733 -19.1423 -19.1409 -19.1368
   -19.1365 -19.1327 -19.1326 -19.1323 -19.1322 -19.0995 -19.0984 -19.0419
   -19.0418 -19.0409 -19.0408 -18.9948 -18.9947 -18.9939 -18.9938 -18.9687
   -18.9684 -18.9618 -18.9618 -18.9533 -18.9522 -18.9448 -18.9443 -18.9404
   -18.9402 -18.9385 -18.9384 -18.8064 -18.8060 -18.7982 -18.7981 -18.7795
   -18.7791 -18.7771 -18.7769 -18.7764 -18.7763 -18.7037 -18.7037 -18.6686
   -18.6686 -13.5549 -13.5527 -13.5526 -13.5075 -13.5017 -13.4377 -13.4377
   -13.4294 -13.4293 -13.4139 -13.4139 -13.4134 -13.4133 -13.3722 -13.3695
   -13.3456 -13.3456 -13.3400 -13.3400 -13.2522 -13.2520 -13.2514 -13.2512
   -13.2152 -13.2083 -13.1720 -13.1670 -13.1656 -13.1638 -13.1506 -13.1504
   -13.0817 -13.0817 -13.0804 -13.0804 -13.0541 -13.0540 -13.0534 -13.0521
   -13.0519 -13.0511 -13.0499 -13.0493 -13.0492 -13.0489 -13.0485 -13.0483
   -13.0178 -13.0178 -13.0161 -13.0161 -12.8842 -12.8840 -12.8799 -12.8791
   -12.8760 -12.8755 -12.8718 -12.8715 -12.8614 -12.8611 -12.8594 -12.8593
   -12.8584 -12.8583 -12.7826 -12.7826 -12.7808 -12.7808 -12.6956 -12.6946
   -12.6903 -12.6899 -12.6733 -12.6732 -12.6718 -12.6718 -12.6499 -12.6498
   -12.6494 -12.6494 -12.6310 -12.6310 -12.6033 -12.6033 -12.5967 -12.5967
   -12.5600 -12.5599 -12.5574 -12.5573 -12.5119 -12.5115 -12.5112 -12.5108
   -12.4153 -12.4153 -12.4148 -12.4147 -12.3229 -12.3225 -12.3173 -12.3172
   -12.3163 -12.3163 -12.2912 -12.2909 -12.2882 -12.2875 -12.2644 -12.2640
   -12.2639 -12.2634 -12.2631 -12.2631 -12.2246 -12.2243 -12.2234 -12.2227
   -12.1649 -12.1646 -12.1644 -12.1640 -11.9923 -11.9923 -11.9916 -11.9916
   -11.9481 -11.9481 -11.9448 -11.9447 -11.9231 -11.7776 -11.7776 -11.7267
   -11.7265 -11.7262 -11.7260 -11.7239 -11.7239 -11.7233 -11.7233 -11.6736
   -11.6736 -11.6375 -11.6374 -11.4265 -11.4264 -11.4260 -11.4260 -11.4123
   -11.4123 -11.4097 -11.4097 -11.2672 -11.2670 -11.2662 -11.2661 -11.2250
   -11.2248 -11.2219 -11.2216 -11.2195 -11.2193 -11.1683 -11.1682 -11.1309
   -11.1305 -11.1222 -11.1218 -11.1217 -11.1210 -11.1192 -11.1188 -11.1184
   -11.1178 -11.1177 -11.1175 -11.1092 -11.1092 -11.0982 -11.0982 -11.0956
   -11.0956 -11.0523 -11.0516 -11.0488 -11.0484 -10.8066 -10.8066 -10.7772
   -10.7770 -10.7766 -10.7765 -10.7625 -10.7624 -10.7595 -10.7595 -10.6328
   -10.6327 -10.6324 -10.6322 -10.5371 -10.5370 -10.5369 -10.5364 -10.5359
   -10.5358 -10.4512 -10.4511 -10.4510 -10.4509 -10.4201 -10.4193 -10.3929
   -10.3929 -10.3926 -10.3924 -10.3598 -10.3597 -10.3595 -10.3594 -10.3157
   -10.3147 -10.3117 -10.3116 -10.1823 -10.1822 -10.1792 -10.1792 -10.1558
   -10.1557 -10.1524 -10.1524 -10.0017 -10.0017 -10.0011 -10.0010  -9.9924
    -9.9918  -9.9917  -9.9914  -9.9315  -9.9313  -9.9290  -9.9289  -9.9121
    -9.8421  -9.8421  -9.8405  -9.8324  -9.8324  -9.8265  -9.8061  -9.8039
    -9.7896  -9.7895  -9.7793  -9.7793  -9.7526  -9.7522  -9.7519  -9.7518
    -9.7492  -9.7490  -9.7482  -9.7477  -9.7477  -9.7474  -9.7361  -9.7289
    -9.7259  -9.7247  -9.7189  -9.7188  -9.7185  -9.7184  -9.6234  -9.6206
    -9.6062  -9.6025  -9.5410  -9.5409  -9.5390  -9.5387  -9.5371  -9.5340
    -9.5331  -9.5330  -9.5325  -9.5324  -9.5324  -9.5316  -9.5289  -9.5286
    -9.5282  -9.5279  -9.5162  -9.5160  -9.5159  -9.5159  -9.5150  -9.5079
    -9.5033  -9.5009  -9.5003  -9.4993  -9.4418  -9.4416  -9.4413  -9.4413
    -9.4321  -9.4308  -9.4248  -9.4247  -9.2813  -9.2813  -9.2781  -9.2781
    -9.2765  -9.2757  -9.2741  -9.2740  -9.2339  -9.2308  -9.2088  -9.2073
    -9.2048  -9.2047  -9.1355  -9.1330  -9.1302  -9.1299  -9.1204  -9.1199
    -9.1171  -9.1169  -9.0852  -9.0851  -9.0328  -9.0326  -9.0312  -9.0312
    -9.0287  -9.0189  -9.0132  -9.0125  -9.0038  -9.0038  -8.9994  -8.9993
    -8.9472  -8.9413  -8.9412  -8.9402  -8.9374  -8.9364  -8.9334  -8.9334
    -8.8767  -8.8764  -8.8735  -8.8732  -8.8530  -8.8528  -8.8525  -8.8524
    -8.8511  -8.8510  -8.8496  -8.8496  -8.8477  -8.8476  -8.8473  -8.8472
    -8.8434  -8.8411  -8.8411  -8.8410  -8.8405  -8.8401  -8.8374  -8.8374
    -8.8141  -8.8141  -8.8122  -8.8121  -8.8117  -8.8108  -8.8106  -8.8103
    -8.8045  -8.8045  -8.7969  -8.7914  -8.7913  -8.7406  -8.7402  -8.7399
    -8.7399  -8.7287  -8.7286  -8.7272  -8.7272  -8.7248  -8.7211  -8.7205
    -8.7198  -8.7194  -8.7184  -8.7181  -8.7164  -8.7011  -8.7010  -8.6962
    -8.6961  -8.6887  -8.6887  -8.6886  -8.6886  -8.6283  -8.6261  -8.6228
    -8.6225  -8.5246  -8.5244  -8.5241  -8.5241  -8.4803  -8.4799  -8.4792
    -8.4790  -8.4789  -8.4785  -8.4781  -8.4779  -8.4716  -8.4716  -8.3905
    -8.3904  -8.3721  -8.3677  -8.3653  -8.3651  -8.3463  -8.3449  -8.3425
    -8.3421  -8.3417  -8.3416  -8.3274  -8.3273  -8.3185  -8.3184  -8.3106
    -8.3106  -8.2776  -8.2774  -8.2766  -8.2765  -8.2764  -8.2751  -8.2685
    -8.2685  -8.2634  -8.2633  -8.2630  -8.2629  -8.1713  -8.1710  -8.1684
    -8.1684  -8.1010  -8.1009  -8.0958  -8.0937  -8.0917  -8.0902  -8.0902
    -8.0863  -8.0753  -8.0750  -8.0748  -8.0745  -8.0709  -8.0646  -8.0616
    -8.0616  -8.0415  -8.0413  -8.0412  -8.0412  -8.0221  -7.9975  -7.9938
    -7.9937  -7.9803  -7.8856  -7.8848  -7.8845  -7.8813  -7.8800  -7.8800
    -7.8799  -7.8798  -7.8740  -7.8734  -7.8734  -7.8732  -7.8142  -7.8140
    -7.8069  -7.8068  -7.7902  -7.7896  -7.7315  -7.7314  -7.7306  -7.7296
    -7.7239  -7.7226  -7.7226  -7.7226  -7.6144  -7.6138  -7.6136  -7.6133
    -7.6122  -7.6119  -7.5998  -7.5991  -7.5986  -7.5985  -7.5984  -7.5984
    -7.5389  -7.5379  -7.5291  -7.5282  -7.5268  -7.5264  -7.4721  -7.4712
    -7.4653  -7.4653  -7.3525  -7.3522  -7.3391  -7.3387  -7.3333  -7.3323
    -7.3054  -7.3050  -7.3040  -7.3039  -7.2757  -7.2743  -7.2734  -7.2724
    -7.2724  -7.2719  -7.2690  -7.2689  -7.2681  -7.2681  -7.2676  -7.2675
    -7.2509  -7.2507  -7.2504  -7.2504  -7.2404  -7.2402  -7.2337  -7.2337
    -7.1827  -7.1817  -7.1815  -7.1793  -7.1789  -7.1774  -7.0631  -7.0630
    -7.0368  -7.0364  -7.0360  -7.0357  -6.9754  -6.9734  -6.9695  -6.9694
    -6.9551  -6.9544  -6.9535  -6.9534  -6.9489  -6.9485  -6.9475  -6.9472
    -6.9470  -6.9469  -6.8834  -6.8814  -6.7407  -6.7402  -6.7391  -6.7391
    -6.6788  -6.6778  -6.6728  -6.6725  -6.6680  -6.6666  -6.6652  -6.6649
    -6.6637  -6.6637  -6.6052  -6.6040  -6.5982  -6.5981  -6.5594  -6.5593
    -6.5455  -6.5428  -6.5422  -6.5420  -6.5417  -6.5409  -6.5379  -6.5366
    -6.5358  -6.5339  -6.5318  -6.5308  -6.5302  -6.5294  -6.4969  -6.4966
    -6.4931  -6.4930  -6.4366  -6.4347  -6.4207  -6.4195  -6.4174  -6.4174
    -6.3170  -6.3164  -6.3157  -6.3154  -6.3142  -6.3097  -6.2576  -6.2506
    -6.2499  -6.2495  -6.2312  -6.2268  -6.1930  -6.1930  -6.1898  -6.1898
    -6.1392  -6.1363  -6.1331  -6.1318  -6.1312  -6.1309  -6.1073  -6.1002
    -6.0845  -6.0843  -6.0832  -6.0831  -6.0511  -6.0500  -6.0471  -6.0470
    -5.9882  -5.9878  -5.9656  -5.9035  -5.8957  -5.8444  -5.8381  -5.8355
    -5.8343  -5.7787  -5.7773  -5.7752  -5.7745  -5.7741  -5.7740  -5.7490
    -5.7479  -5.7454  -5.7444  -5.7431  -5.7427  -5.7384  -5.7383  -5.6777
    -5.6755  -5.6752  -5.6734  -5.6733  -5.6715  -5.6700  -5.6692  -5.6690
    -5.6689  -5.6685  -5.6685  -5.5969  -5.5964  -5.5918  -5.5917  -5.5623
    -5.5583  -5.5582  -5.5071  -5.5015  -5.4608  -5.4605  -5.4585  -5.4584
    -5.4242  -5.4222  -5.4196  -5.4192  -5.4155  -5.4152  -5.4140  -5.4139
    -5.3469  -5.3450  -5.2585  -5.2584  -5.2575  -5.2572  -5.1913  -5.1911
    -5.1903  -5.1901  -5.1515  -5.1510  -5.1450  -5.1449  -5.1277  -5.1263
    -5.1209  -5.1206  -5.1130  -5.1130  -5.1073  -5.1069  -4.8886  -4.8879
    -4.8815  -4.8814  -4.8498  -4.8494  -4.8452  -4.8451  -4.8450  -4.8449
    -4.7238  -4.7236  -4.6663  -4.6662  -0.2090  -0.1129  -0.0548  -0.0373
    -0.0261   0.0328   0.0471   0.0485   0.0680   0.0733   0.0957   0.0966
     0.1277   0.1325   0.1386   0.1395   0.1402   0.1412   0.1491   0.1560
     0.1569

          k = 0.0000 0.3849 0.0000 (****** PWs)   bands (ev):

   -24.1507 -22.3304 -22.2985 -22.2688 -22.2621 -22.2407 -22.2361 -22.1983
   -22.1432 -22.1369 -22.1246 -22.0987 -22.0967 -22.0745 -22.0712 -22.0643
   -22.0613 -21.9752 -21.9725 -21.9267 -21.9017 -21.8992 -21.8716 -21.8660
   -21.8230 -21.8219 -21.8055 -21.7955 -21.7953 -21.7504 -21.7449 -21.7101
   -21.7073 -21.6979 -21.6978 -21.6297 -21.6287 -21.5871 -21.5852 -21.5190
   -21.4654 -21.4595 -21.4477 -21.4467 -21.4390 -21.4387 -21.4208 -21.4201
   -21.3557 -21.3294 -21.3286 -21.3241 -21.3231 -21.3058 -21.3038 -21.3014
   -21.2964 -21.2603 -21.2597 -21.1455 -21.1434 -21.0807 -21.0797 -21.0490
   -21.0480 -20.9933 -20.9837 -20.9835 -20.9690 -20.9682 -20.9583 -20.9583
   -20.9417 -20.9363 -20.8936 -20.8926 -20.8738 -20.8737 -20.8100 -20.8099
   -20.7982 -20.7912 -20.7891 -20.7474 -20.7420 -20.7080 -20.7073 -20.6426
   -20.6425 -20.6006 -20.5984 -20.5611 -20.5603 -20.5505 -20.5496 -20.5396
   -20.5395 -20.4548 -20.4547 -20.4322 -20.4321 -20.3902 -20.3665 -20.3655
   -20.3587 -20.3586 -20.3416 -20.3363 -20.3037 -20.3036 -20.3030 -20.3029
   -20.2369 -20.2361 -20.2022 -20.2003 -20.1839 -20.1698 -20.1697 -20.1601
   -20.1600 -20.1364 -20.1312 -20.0737 -20.0735 -20.0644 -20.0637 -20.0019
   -19.9999 -19.9846 -19.9836 -19.8969 -19.8968 -19.8838 -19.8835 -19.8778
   -19.8777 -19.8728 -19.8728 -19.8241 -19.8240 -19.7933 -19.7922 -19.7893
   -19.7843 -19.7842 -19.7672 -19.7671 -19.7447 -19.7395 -19.7286 -19.7285
   -19.7106 -19.7099 -19.6826 -19.6825 -19.6233 -19.6232 -19.6206 -19.6182
   -19.6138 -19.5707 -19.5656 -19.5386 -19.5385 -19.5351 -19.5344 -19.4935
   -19.4934 -19.4517 -19.4494 -19.4325 -19.4314 -19.4295 -19.4293 -19.4222
   -19.4222 -19.4185 -19.4184 -19.3695 -19.3692 -19.3547 -19.3546 -19.3484
   -19.3359 -19.3359 -19.3222 -19.3221 -19.3076 -19.3017 -19.2981 -19.2980
   -19.2901 -19.2900 -19.2775 -19.2765 -19.2746 -19.2744 -19.2719 -19.2698
   -19.2682 -19.2546 -19.2546 -19.2418 -19.2418 -19.2323 -19.2289 -19.2289
   -19.2283 -19.2090 -19.2080 -19.1950 -19.1949 -19.1945 -19.1935 -19.1247
   -19.1234 -19.1225 -19.1225 -19.0948 -19.0946 -19.0748 -19.0748 -19.0660
   -19.0653 -19.0338 -19.0331 -19.0121 -19.0120 -19.0029 -19.0029 -18.9844
   -18.9843 -18.9673 -18.9668 -18.9536 -18.9535 -18.9401 -18.9401 -18.9088
   -18.9088 -18.8929 -18.8928 -18.8569 -18.8562 -18.8366 -18.8366 -18.7994
   -18.7987 -18.7431 -18.7429 -18.7246 -18.7246 -18.7114 -18.7114 -18.6828
   -18.6828 -13.5385 -13.5384 -13.5160 -13.4922 -13.4921 -13.4692 -13.4628
   -13.4287 -13.4287 -13.4053 -13.4053 -13.3974 -13.3926 -13.3926 -13.3542
   -13.3488 -13.3378 -13.3378 -13.3332 -13.3321 -13.3182 -13.3182 -13.2591
   -13.2591 -13.2259 -13.2240 -13.1956 -13.1955 -13.1498 -13.1498 -13.1425
   -13.1424 -13.1196 -13.1186 -13.0990 -13.0990 -13.0892 -13.0892 -13.0310
   -13.0309 -13.0245 -13.0237 -13.0145 -13.0144 -12.9863 -12.9863 -12.9638
   -12.9567 -12.9567 -12.9246 -12.9202 -12.8965 -12.8965 -12.8926 -12.8925
   -12.8641 -12.8641 -12.8444 -12.8432 -12.8207 -12.8191 -12.7839 -12.7830
   -12.7630 -12.7629 -12.7417 -12.7416 -12.7256 -12.7255 -12.6945 -12.6945
   -12.6919 -12.6916 -12.6829 -12.6828 -12.6735 -12.6730 -12.6686 -12.6686
   -12.6643 -12.6456 -12.6456 -12.6438 -12.6438 -12.6415 -12.6414 -12.6288
   -12.6249 -12.6116 -12.6116 -12.5952 -12.5952 -12.5651 -12.5644 -12.5424
   -12.5407 -12.5164 -12.5164 -12.4897 -12.4897 -12.4379 -12.4371 -12.4190
   -12.4186 -12.4110 -12.4108 -12.3207 -12.3206 -12.3032 -12.3030 -12.2927
   -12.2927 -12.1512 -12.1512 -12.1293 -12.1293 -12.1287 -12.1286 -12.0933
   -12.0927 -11.9472 -11.9305 -11.9303 -11.9235 -11.9185 -11.9171 -11.9134
   -11.9132 -11.8826 -11.8816 -11.8683 -11.8682 -11.8168 -11.8167 -11.7892
   -11.7891 -11.7305 -11.7305 -11.6780 -11.6779 -11.6275 -11.6275 -11.6115
   -11.6114 -11.5994 -11.5994 -11.5763 -11.5743 -11.5431 -11.5315 -11.5314
   -11.5200 -11.5191 -11.5147 -11.5147 -11.5023 -11.5021 -11.4461 -11.4461
   -11.3293 -11.3292 -11.3101 -11.3100 -11.2153 -11.2153 -11.2046 -11.2039
   -11.1785 -11.1784 -11.1457 -11.1451 -11.1145 -11.1144 -10.9977 -10.9977
   -10.9679 -10.9678 -10.9624 -10.9623 -10.9595 -10.9590 -10.9587 -10.9586
   -10.9167 -10.9165 -10.9160 -10.9157 -10.9026 -10.9026 -10.8468 -10.8467
   -10.7446 -10.7442 -10.7276 -10.7236 -10.6827 -10.6827 -10.6804 -10.6804
   -10.6793 -10.6666 -10.6572 -10.6554 -10.6550 -10.5579 -10.5579 -10.5210
   -10.5209 -10.4894 -10.4893 -10.4091 -10.4082 -10.3718 -10.3713 -10.3620
   -10.3620 -10.3471 -10.3470 -10.3351 -10.3350 -10.3278 -10.3248 -10.2959
   -10.2957 -10.2629 -10.2628 -10.2363 -10.2310 -10.2304 -10.2250 -10.2185
   -10.2184 -10.2063 -10.1245 -10.1239 -10.0999 -10.0998 -10.0712 -10.0710
   -10.0373 -10.0373 -10.0212 -10.0212  -9.9931  -9.9930  -9.9845  -9.9843
    -9.9709  -9.9709  -9.9025  -9.8818  -9.8817  -9.8638  -9.8344  -9.8338
    -9.8244  -9.8154  -9.8114  -9.8114  -9.7928  -9.7927  -9.7900  -9.7899
    -9.7873  -9.7812  -9.7510  -9.7510  -9.7447  -9.7447  -9.7284  -9.6839
    -9.6838  -9.6553  -9.6508  -9.6503  -9.6472  -9.6287  -9.6145  -9.6114
    -9.5952  -9.5917  -9.5821  -9.5805  -9.5627  -9.5578  -9.5498  -9.5460
    -9.5436  -9.5415  -9.5259  -9.5256  -9.5017  -9.5016  -9.4677  -9.4656
    -9.4508  -9.4505  -9.4286  -9.4246  -9.4189  -9.4188  -9.3812  -9.3791
    -9.3627  -9.3627  -9.3618  -9.3441  -9.3348  -9.3307  -9.3307  -9.3292
    -9.3254  -9.3119  -9.3116  -9.2899  -9.2887  -9.2816  -9.2749  -9.2749
    -9.2490  -9.2488  -9.2225  -9.2201  -9.2094  -9.2089  -9.1978  -9.1908
    -9.1907  -9.1863  -9.1855  -9.1692  -9.1674  -9.1532  -9.1532  -9.1524
    -9.1504  -9.1495  -9.1495  -9.1306  -9.1306  -9.1246  -9.1176  -9.0862
    -9.0861  -9.0695  -9.0647  -9.0543  -9.0540  -9.0533  -9.0532  -9.0412
    -9.0411  -9.0215  -9.0114  -9.0102  -9.0093  -8.9899  -8.9898  -8.9875
    -8.9820  -8.9669  -8.9669  -8.9609  -8.9593  -8.9588  -8.9587  -8.9559
    -8.9559  -8.9283  -8.9283  -8.9055  -8.9034  -8.9004  -8.8981  -8.8980
    -8.8969  -8.8874  -8.8873  -8.8816  -8.8739  -8.8502  -8.8497  -8.8351
    -8.8211  -8.8211  -8.8088  -8.8023  -8.7934  -8.7924  -8.7924  -8.7875
    -8.7589  -8.7379  -8.7356  -8.7356  -8.7299  -8.7274  -8.7273  -8.7131
    -8.7107  -8.7083  -8.7083  -8.7017  -8.7009  -8.6774  -8.6774  -8.6764
    -8.6764  -8.6754  -8.6742  -8.6539  -8.6299  -8.6297  -8.6136  -8.6135
    -8.5892  -8.5864  -8.5825  -8.5748  -8.5676  -8.5672  -8.5550  -8.5549
    -8.5527  -8.5509  -8.5450  -8.5427  -8.5204  -8.5171  -8.5143  -8.5076
    -8.5046  -8.5043  -8.4859  -8.4831  -8.4751  -8.4741  -8.4670  -8.4669
    -8.4595  -8.4580  -8.4567  -8.4534  -8.4504  -8.4503  -8.4262  -8.4261
    -8.4143  -8.4143  -8.3675  -8.3069  -8.3065  -8.3044  -8.3043  -8.3017
    -8.2978  -8.2854  -8.2850  -8.2440  -8.2439  -8.2411  -8.2129  -8.2094
    -8.1702  -8.1670  -8.1623  -8.1618  -8.1613  -8.1538  -8.1442  -8.1441
    -8.1416  -8.1416  -8.1020  -8.1019  -8.0950  -8.0836  -8.0770  -8.0728
    -8.0693  -8.0693  -8.0649  -8.0620  -8.0594  -8.0580  -8.0563  -8.0544
    -8.0543  -8.0462  -8.0443  -8.0258  -8.0136  -7.9994  -7.9928  -7.9853
    -7.9617  -7.9532  -7.9508  -7.9482  -7.9347  -7.9340  -7.9264  -7.9234
    -7.8784  -7.8779  -7.8380  -7.8369  -7.8321  -7.8308  -7.8280  -7.8275
    -7.8189  -7.8117  -7.8102  -7.7845  -7.7510  -7.7450  -7.7237  -7.7230
    -7.6960  -7.6960  -7.6897  -7.6830  -7.6392  -7.6390  -7.6274  -7.6203
    -7.6116  -7.6116  -7.6054  -7.6051  -7.5881  -7.5872  -7.5580  -7.5572
    -7.5558  -7.5480  -7.5455  -7.5437  -7.5432  -7.5205  -7.5200  -7.4919
    -7.4915  -7.4791  -7.4781  -7.4621  -7.4620  -7.4362  -7.4325  -7.4292
    -7.4255  -7.4254  -7.3793  -7.3786  -7.3693  -7.3688  -7.3442  -7.3439
    -7.3146  -7.3145  -7.2497  -7.2484  -7.2220  -7.2207  -7.2094  -7.2093
    -7.1843  -7.1778  -7.1493  -7.1491  -7.1310  -7.1309  -7.1292  -7.1291
    -7.1157  -7.1151  -7.0477  -7.0402  -7.0387  -7.0379  -7.0286  -7.0269
    -7.0227  -7.0219  -7.0203  -7.0182  -6.9892  -6.9867  -6.9574  -6.9548
    -6.9536  -6.9441  -6.9441  -6.9407  -6.9406  -6.9262  -6.9262  -6.9203
    -6.9184  -6.8933  -6.8868  -6.8796  -6.8578  -6.8515  -6.8418  -6.8023
    -6.8022  -6.7944  -6.7937  -6.7743  -6.7740  -6.7561  -6.7527  -6.7034
    -6.7018  -6.7008  -6.6810  -6.6797  -6.6359  -6.6349  -6.5534  -6.5532
    -6.5495  -6.5301  -6.5299  -6.5284  -6.5283  -6.5141  -6.5141  -6.5138
    -6.5091  -6.4750  -6.4728  -6.4473  -6.4473  -6.4440  -6.4426  -6.4051
    -6.4037  -6.3877  -6.3876  -6.3867  -6.3841  -6.3720  -6.3706  -6.3675
    -6.3654  -6.3576  -6.3576  -6.3260  -6.3195  -6.3080  -6.3079  -6.2854
    -6.2848  -6.2711  -6.2649  -6.2465  -6.2349  -6.2347  -6.1708  -6.1660
    -6.1472  -6.1454  -6.1449  -6.1442  -6.1340  -6.1266  -6.1195  -6.1162
    -6.0673  -6.0608  -6.0564  -6.0278  -6.0276  -6.0243  -6.0207  -6.0199
    -6.0050  -5.9694  -5.9479  -5.9449  -5.8940  -5.8911  -5.8712  -5.8693
    -5.8572  -5.8567  -5.8502  -5.8492  -5.8402  -5.8402  -5.7756  -5.7744
    -5.7588  -5.7587  -5.7240  -5.7236  -5.7204  -5.6993  -5.6989  -5.6641
    -5.6568  -5.6479  -5.6470  -5.6416  -5.6414  -5.6354  -5.6346  -5.6269
    -5.6260  -5.6167  -5.6165  -5.6017  -5.5785  -5.5782  -5.5614  -5.5613
    -5.5474  -5.5448  -5.5447  -5.5416  -5.5343  -5.5336  -5.5024  -5.5022
    -5.4980  -5.4963  -5.3865  -5.3843  -5.3814  -5.3812  -5.3435  -5.3431
    -5.3137  -5.3131  -5.3113  -5.3111  -5.2534  -5.2522  -5.2190  -5.2186
    -5.2090  -5.2089  -5.1752  -5.1749  -5.1466  -5.1456  -5.1313  -5.1311
    -5.1157  -5.1156  -5.0561  -5.0559  -5.0359  -5.0356  -4.9757  -4.9750
    -4.9407  -4.9406  -4.8808  -4.8802  -4.7840  -4.7837  -4.7627  -4.7626
    -4.7372  -4.7371  -4.6910  -4.6908  -0.2049  -0.1171  -0.0717  -0.0405
    -0.0157   0.0024   0.0575   0.0648   0.0661   0.0995   0.1003   0.1144
     0.1151   0.1307   0.1350   0.1351   0.1649   0.1663   0.1692   0.1716
     0.1755

          k = 0.3333 0.0000 0.0000 (****** PWs)   bands (ev):

   -24.1507 -22.3329 -22.3033 -22.2571 -22.2491 -22.2290 -22.2270 -22.2261
   -22.1736 -22.1559 -22.1528 -22.1006 -22.0971 -22.0305 -22.0286 -22.0239
   -22.0038 -22.0035 -21.9535 -21.9499 -21.9337 -21.9315 -21.9309 -21.8788
   -21.8783 -21.8594 -21.8568 -21.7335 -21.7328 -21.7146 -21.6652 -21.6650
   -21.6443 -21.6437 -21.6433 -21.6404 -21.6386 -21.6386 -21.5894 -21.5705
   -21.5704 -21.5199 -21.5178 -21.5163 -21.5152 -21.4306 -21.4304 -21.3764
   -21.3763 -21.3097 -21.3093 -21.3079 -21.2889 -21.2888 -21.2399 -21.2366
   -21.1758 -21.1755 -21.1531 -21.1512 -21.1511 -21.0885 -21.0883 -21.0866
   -21.0834 -21.0824 -21.0824 -21.0364 -21.0362 -21.0342 -21.0341 -20.9691
   -20.9690 -20.9003 -20.9002 -20.8882 -20.8880 -20.8193 -20.8181 -20.8180
   -20.7569 -20.7536 -20.7113 -20.7112 -20.6423 -20.6262 -20.6260 -20.5926
   -20.5923 -20.5828 -20.5796 -20.5719 -20.5717 -20.5714 -20.5712 -20.5686
   -20.5685 -20.5175 -20.5173 -20.5068 -20.5067 -20.4593 -20.4592 -20.4057
   -20.4055 -20.3356 -20.3355 -20.2850 -20.2848 -20.2756 -20.2749 -20.2738
   -20.2600 -20.2599 -20.2215 -20.2185 -20.1568 -20.1567 -20.1276 -20.1274
   -20.0873 -20.0857 -20.0857 -20.0677 -20.0675 -20.0387 -20.0358 -19.9896
   -19.9893 -19.9786 -19.9776 -19.9557 -19.9549 -19.9016 -19.9012 -19.8995
   -19.8994 -19.8992 -19.8988 -19.8568 -19.8562 -19.8313 -19.8312 -19.7841
   -19.7839 -19.7747 -19.7746 -19.7457 -19.7451 -19.7164 -19.6909 -19.6908
   -19.6822 -19.6815 -19.6792 -19.6771 -19.6761 -19.6758 -19.5810 -19.5808
   -19.5427 -19.5424 -19.5383 -19.5291 -19.5285 -19.5087 -19.5069 -19.4769
   -19.4768 -19.4671 -19.4565 -19.4490 -19.4485 -19.4455 -19.4453 -19.4394
   -19.4394 -19.4392 -19.4378 -19.4355 -19.4354 -19.3914 -19.3873 -19.3858
   -19.3857 -19.3535 -19.3493 -19.3425 -19.3424 -19.2977 -19.2976 -19.2849
   -19.2841 -19.2581 -19.2564 -19.2563 -19.2523 -19.2425 -19.2420 -19.2419
   -19.2242 -19.2213 -19.2149 -19.2094 -19.2060 -19.2054 -19.2006 -19.1981
   -19.1981 -19.1950 -19.1930 -19.1929 -19.1903 -19.1900 -19.1772 -19.1768
   -19.1767 -19.1412 -19.1083 -19.1062 -19.0822 -19.0752 -19.0748 -19.0703
   -19.0702 -19.0690 -19.0602 -19.0506 -19.0287 -19.0271 -19.0129 -19.0067
   -18.9981 -18.9978 -18.9972 -18.9848 -18.9846 -18.8968 -18.8869 -18.8834
   -18.8833 -18.8767 -18.8453 -18.8364 -18.8356 -18.8292 -18.8213 -18.8156
   -18.7752 -18.7707 -18.7667 -18.7637 -18.7569 -18.7323 -18.6964 -18.6692
   -18.6602 -13.5518 -13.5304 -13.5303 -13.5274 -13.4746 -13.4745 -13.4700
   -13.4669 -13.4668 -13.4537 -13.4536 -13.4253 -13.3414 -13.3413 -13.3248
   -13.3247 -13.3069 -13.2352 -13.2346 -13.2334 -13.2300 -13.2294 -13.2128
   -13.2127 -13.2115 -13.2051 -13.1922 -13.1921 -13.1877 -13.1877 -13.1872
   -13.1861 -13.1728 -13.1725 -13.1585 -13.1579 -13.1381 -13.1350 -13.0992
   -13.0961 -13.0615 -13.0011 -13.0010 -12.9985 -12.9956 -12.9664 -12.9553
   -12.9544 -12.9377 -12.9358 -12.9092 -12.9090 -12.9066 -12.9054 -12.9009
   -12.8991 -12.8593 -12.8593 -12.8139 -12.8127 -12.8113 -12.8099 -12.8070
   -12.8060 -12.8042 -12.8040 -12.8039 -12.8010 -12.7619 -12.7459 -12.7421
   -12.7337 -12.7318 -12.7254 -12.7245 -12.7019 -12.6986 -12.6701 -12.6540
   -12.6508 -12.6497 -12.6467 -12.6445 -12.6445 -12.6439 -12.6430 -12.5911
   -12.5767 -12.5767 -12.5725 -12.5370 -12.5370 -12.5266 -12.4983 -12.4979
   -12.4123 -12.3851 -12.3820 -12.3653 -12.3649 -12.3217 -12.3213 -12.3013
   -12.3006 -12.2727 -12.2724 -12.2717 -12.2713 -12.2711 -12.2708 -12.2492
   -12.2488 -12.2022 -12.2019 -12.2003 -12.1999 -12.1801 -12.1777 -12.1776
   -12.1766 -12.1752 -12.1747 -12.1682 -12.1677 -12.0824 -12.0358 -12.0358
   -12.0085 -12.0079 -11.9449 -11.9448 -11.9232 -11.8728 -11.8245 -11.7821
   -11.7377 -11.7377 -11.7025 -11.7025 -11.6923 -11.6890 -11.6447 -11.5344
   -11.5344 -11.5275 -11.4533 -11.4222 -11.4215 -11.4161 -11.4128 -11.4098
   -11.4098 -11.3980 -11.3962 -11.3794 -11.3792 -11.3792 -11.3627 -11.3574
   -11.3538 -11.3271 -11.3264 -11.2338 -11.2307 -11.1915 -11.1915 -11.1471
   -11.1470 -11.1207 -11.1205 -11.1065 -11.1057 -11.1057 -11.1051 -11.1050
   -11.1049 -11.1005 -11.0982 -11.0982 -11.0956 -11.0956 -11.0884 -11.0856
   -10.9681 -10.9668 -10.9333 -10.9304 -10.8417 -10.8417 -10.8287 -10.8251
   -10.8116 -10.8083 -10.7787 -10.7786 -10.7570 -10.6967 -10.6503 -10.6498
   -10.6228 -10.6224 -10.5850 -10.5850 -10.5808 -10.5796 -10.5771 -10.5754
   -10.5738 -10.5737 -10.4965 -10.4956 -10.4953 -10.4889 -10.4856 -10.4402
   -10.4396 -10.3975 -10.3971 -10.3848 -10.3819 -10.3086 -10.2742 -10.2739
   -10.2113 -10.2109 -10.1748 -10.1748 -10.1742 -10.1437 -10.1428 -10.1425
   -10.1267 -10.1267 -10.0975 -10.0970 -10.0733 -10.0477 -10.0442 -10.0324
   -10.0323  -9.9722  -9.9691  -9.9059  -9.8753  -9.8718  -9.8604  -9.8603
    -9.8518  -9.8515  -9.8158  -9.8157  -9.8148  -9.8116  -9.8114  -9.8113
    -9.8064  -9.7963  -9.7852  -9.7816  -9.7724  -9.7682  -9.7680  -9.7679
    -9.7678  -9.7656  -9.7656  -9.7580  -9.7578  -9.7556  -9.7530  -9.7523
    -9.7522  -9.7502  -9.7502  -9.6962  -9.6954  -9.6952  -9.6870  -9.6869
    -9.6725  -9.6698  -9.6698  -9.6683  -9.6065  -9.6065  -9.5977  -9.5931
    -9.5867  -9.5864  -9.5863  -9.5114  -9.5111  -9.5025  -9.5020  -9.4979
    -9.4938  -9.4687  -9.4684  -9.4680  -9.4654  -9.4541  -9.4541  -9.4084
    -9.4079  -9.3990  -9.3940  -9.3909  -9.3724  -9.3698  -9.3697  -9.3697
    -9.3692  -9.3681  -9.3681  -9.3371  -9.3088  -9.3072  -9.3060  -9.3035
    -9.2983  -9.2967  -9.2726  -9.2691  -9.2615  -9.2614  -9.2442  -9.2442
    -9.2011  -9.2010  -9.1891  -9.1881  -9.1881  -9.1578  -9.1072  -9.1034
    -9.1018  -9.0998  -9.0954  -9.0953  -9.0813  -9.0784  -9.0757  -9.0698
    -9.0693  -9.0599  -9.0598  -9.0552  -9.0549  -9.0074  -9.0066  -9.0066
    -9.0059  -8.9817  -8.9793  -8.9787  -8.9755  -8.9740  -8.9740  -8.9115
    -8.9114  -8.9057  -8.9010  -8.8808  -8.8803  -8.8772  -8.8770  -8.8741
    -8.8739  -8.8615  -8.8610  -8.8605  -8.8604  -8.8561  -8.8560  -8.8494
    -8.8494  -8.8319  -8.8317  -8.8314  -8.8269  -8.8198  -8.8198  -8.8186
    -8.8186  -8.8163  -8.8148  -8.8146  -8.8146  -8.8122  -8.8086  -8.8068
    -8.8055  -8.8013  -8.8013  -8.7916  -8.7916  -8.7723  -8.7691  -8.7679
    -8.7678  -8.7420  -8.7396  -8.6914  -8.6913  -8.6904  -8.6889  -8.6604
    -8.6603  -8.6502  -8.6501  -8.6420  -8.6420  -8.6232  -8.6205  -8.6168
    -8.6161  -8.5802  -8.5800  -8.5788  -8.5777  -8.5776  -8.5587  -8.5587
    -8.5507  -8.5507  -8.5258  -8.5234  -8.5221  -8.5043  -8.5041  -8.4975
    -8.4971  -8.4674  -8.4673  -8.4653  -8.4379  -8.4378  -8.4306  -8.4298
    -8.4297  -8.4287  -8.4258  -8.4257  -8.4255  -8.4253  -8.4042  -8.4041
    -8.3980  -8.3979  -8.3957  -8.3931  -8.3582  -8.3581  -8.3407  -8.3389
    -8.3316  -8.3316  -8.3117  -8.3095  -8.3094  -8.2256  -8.2212  -8.2196
    -8.2156  -8.2146  -8.2146  -8.1991  -8.1990  -8.1982  -8.1980  -8.1978
    -8.1978  -8.1536  -8.1500  -8.1483  -8.1478  -8.1362  -8.1357  -8.1353
    -8.1349  -8.1253  -8.1253  -8.1232  -8.1091  -8.1090  -8.0792  -8.0633
    -8.0577  -8.0139  -8.0132  -8.0130  -7.9638  -7.9601  -7.9515  -7.9514
    -7.9510  -7.9483  -7.9473  -7.9473  -7.9457  -7.9421  -7.8916  -7.8913
    -7.8509  -7.8504  -7.8483  -7.8362  -7.8007  -7.8007  -7.7701  -7.7673
    -7.7641  -7.7612  -7.7510  -7.7504  -7.7336  -7.7319  -7.7082  -7.7081
    -7.7035  -7.7034  -7.7010  -7.7002  -7.6492  -7.6488  -7.6345  -7.6345
    -7.6058  -7.5844  -7.5837  -7.5329  -7.5317  -7.5229  -7.5193  -7.5070
    -7.5067  -7.5060  -7.5059  -7.5040  -7.5039  -7.4851  -7.4849  -7.4774
    -7.4772  -7.4710  -7.4702  -7.4683  -7.4621  -7.4601  -7.4329  -7.4325
    -7.4171  -7.4167  -7.3731  -7.3639  -7.3636  -7.3524  -7.3523  -7.3510
    -7.3507  -7.3308  -7.3293  -7.2743  -7.2739  -7.2478  -7.2473  -7.1958
    -7.1952  -7.1782  -7.1778  -7.1648  -7.1590  -7.1466  -7.1464  -7.1428
    -7.1426  -7.1424  -7.1414  -7.1033  -7.1031  -7.0928  -7.0914  -7.0905
    -7.0833  -7.0832  -7.0721  -7.0717  -7.0439  -7.0436  -7.0168  -7.0131
    -6.9283  -6.9267  -6.9232  -6.9229  -6.8797  -6.8796  -6.8545  -6.8543
    -6.8269  -6.8257  -6.8254  -6.8114  -6.8081  -6.7954  -6.7948  -6.7625
    -6.7622  -6.7608  -6.7573  -6.7535  -6.7105  -6.7101  -6.6882  -6.6878
    -6.6656  -6.6631  -6.6622  -6.6608  -6.6343  -6.6341  -6.6293  -6.6026
    -6.6024  -6.5891  -6.5558  -6.5552  -6.5536  -6.5532  -6.5528  -6.5526
    -6.5515  -6.5513  -6.4926  -6.4921  -6.4513  -6.4511  -6.4267  -6.4226
    -6.4117  -6.4093  -6.4070  -6.3914  -6.3912  -6.3701  -6.3700  -6.3400
    -6.3346  -6.3336  -6.3330  -6.3266  -6.3254  -6.3022  -6.2929  -6.2450
    -6.2449  -6.2405  -6.2396  -6.2381  -6.2351  -6.2340  -6.2339  -6.1943
    -6.1927  -6.1895  -6.1533  -6.1504  -6.0976  -6.0870  -6.0860  -6.0410
    -6.0322  -6.0241  -6.0235  -6.0178  -6.0172  -6.0154  -6.0000  -5.9890
    -5.9836  -5.9643  -5.9350  -5.9336  -5.9023  -5.8979  -5.8956  -5.8900
    -5.8752  -5.8732  -5.8691  -5.8689  -5.8688  -5.8672  -5.8671  -5.8669
    -5.7965  -5.7954  -5.7952  -5.7921  -5.7405  -5.7363  -5.7174  -5.7171
    -5.6520  -5.6510  -5.6444  -5.6442  -5.5979  -5.5928  -5.5818  -5.5814
    -5.5696  -5.5695  -5.5575  -5.5418  -5.5338  -5.5316  -5.5306  -5.5214
    -5.5204  -5.5119  -5.5117  -5.5106  -5.5073  -5.4962  -5.4960  -5.4927
    -5.4927  -5.4627  -5.4623  -5.4620  -5.4092  -5.3622  -5.3602  -5.3295
    -5.3226  -5.3215  -5.3175  -5.3170  -5.3161  -5.3074  -5.2735  -5.2445
    -5.2431  -5.2237  -5.2187  -5.1939  -5.1933  -5.1929  -5.1732  -5.1729
    -5.0359  -5.0284  -5.0182  -5.0130  -5.0069  -4.9546  -4.9463  -4.9453
    -4.9306  -4.9123  -4.9068  -4.8419  -4.8372  -4.8275  -4.8240  -4.8152
    -4.7712  -4.7102  -4.6678  -4.6513  -0.2069  -0.1228  -0.0660  -0.0157
     0.0037   0.0175   0.0198   0.0389   0.0486   0.0784   0.0949   0.1050
     0.1305   0.1353   0.1419   0.1440   0.1481   0.1528   0.1644   0.1653
     0.1727

          k = 0.3333 0.3849 0.0000 (****** PWs)   bands (ev):

   -24.1507 -22.3270 -22.2971 -22.2891 -22.2684 -22.2234 -22.1959 -22.1929
   -22.1712 -22.1633 -22.1399 -22.1185 -22.0967 -22.0940 -22.0413 -22.0240
   -22.0167 -21.9903 -21.9676 -21.9266 -21.9222 -21.8988 -21.8975 -21.8937
   -21.8265 -21.8219 -21.8034 -21.8005 -21.7761 -21.7717 -21.7306 -21.7082
   -21.7055 -21.6810 -21.6518 -21.6290 -21.5865 -21.5825 -21.5559 -21.5401
   -21.5186 -21.5142 -21.5073 -21.4897 -21.4628 -21.4226 -21.4213 -21.3924
   -21.3687 -21.3510 -21.3296 -21.3264 -21.3010 -21.2753 -21.2592 -21.2300
   -21.2142 -21.2094 -21.2073 -21.1855 -21.1466 -21.1442 -21.1212 -21.1182
   -21.0957 -21.0708 -21.0336 -20.9896 -20.9870 -20.9677 -20.9652 -20.9475
   -20.9376 -20.9001 -20.8508 -20.8332 -20.8299 -20.8130 -20.7953 -20.7947
   -20.7892 -20.7885 -20.7703 -20.7196 -20.7071 -20.7067 -20.6915 -20.6773
   -20.6577 -20.6457 -20.6394 -20.6364 -20.6129 -20.5782 -20.5349 -20.5306
   -20.4850 -20.4763 -20.4526 -20.4525 -20.4429 -20.4347 -20.3868 -20.3866
   -20.3632 -20.3475 -20.3234 -20.3040 -20.3030 -20.2717 -20.2696 -20.2569
   -20.2481 -20.2306 -20.1808 -20.1801 -20.1704 -20.1607 -20.1570 -20.1374
   -20.1289 -20.1196 -20.0991 -20.0829 -20.0644 -20.0626 -20.0545 -20.0340
   -20.0186 -20.0007 -19.9998 -19.9970 -19.9550 -19.9543 -19.9384 -19.9178
   -19.8990 -19.8974 -19.8693 -19.8409 -19.8368 -19.8059 -19.7862 -19.7670
   -19.7635 -19.7621 -19.7381 -19.7136 -19.7106 -19.7096 -19.6963 -19.6686
   -19.6521 -19.6475 -19.6425 -19.6242 -19.6193 -19.6185 -19.6134 -19.6109
   -19.6097 -19.5885 -19.5624 -19.5384 -19.5373 -19.5364 -19.5286 -19.5207
   -19.5172 -19.5140 -19.4992 -19.4972 -19.4910 -19.4882 -19.4641 -19.4455
   -19.4412 -19.4061 -19.3964 -19.3927 -19.3738 -19.3607 -19.3589 -19.3582
   -19.3462 -19.3459 -19.3367 -19.3360 -19.3357 -19.3230 -19.3100 -19.2867
   -19.2834 -19.2777 -19.2738 -19.2663 -19.2596 -19.2505 -19.2496 -19.2373
   -19.2359 -19.2201 -19.2159 -19.2123 -19.2066 -19.2048 -19.2008 -19.1993
   -19.1985 -19.1978 -19.1911 -19.1906 -19.1665 -19.1573 -19.1458 -19.1412
   -19.1394 -19.1331 -19.1327 -19.1256 -19.1232 -19.0926 -19.0912 -19.0828
   -19.0756 -19.0694 -19.0656 -19.0614 -19.0602 -19.0574 -19.0229 -19.0007
   -18.9738 -18.9576 -18.9530 -18.9426 -18.9226 -18.9167 -18.9132 -18.9102
   -18.9096 -18.8670 -18.8591 -18.8523 -18.8507 -18.8417 -18.8339 -18.8059
   -18.7859 -18.7645 -18.7617 -18.7503 -18.7166 -18.7108 -18.7089 -18.6799
   -18.6726 -13.5394 -13.5214 -13.5131 -13.4967 -13.4963 -13.4882 -13.4812
   -13.4324 -13.4203 -13.4159 -13.3972 -13.3959 -13.3874 -13.3858 -13.3716
   -13.3346 -13.3329 -13.3229 -13.3182 -13.3052 -13.2977 -13.2815 -13.2761
   -13.2704 -13.2673 -13.2306 -13.2169 -13.2050 -13.1989 -13.1689 -13.1655
   -13.1437 -13.1108 -13.0983 -13.0976 -13.0931 -13.0862 -13.0646 -13.0532
   -13.0326 -13.0320 -13.0143 -13.0127 -12.9619 -12.9600 -12.9543 -12.9507
   -12.9449 -12.9409 -12.9383 -12.9318 -12.9158 -12.8968 -12.8954 -12.8803
   -12.8777 -12.8634 -12.8604 -12.8576 -12.8107 -12.7894 -12.7854 -12.7844
   -12.7751 -12.7751 -12.7740 -12.7494 -12.7384 -12.7338 -12.7248 -12.7240
   -12.7138 -12.7117 -12.6916 -12.6856 -12.6701 -12.6694 -12.6671 -12.6643
   -12.6626 -12.6581 -12.6454 -12.6418 -12.6281 -12.6266 -12.6151 -12.6040
   -12.6017 -12.5852 -12.5752 -12.5716 -12.5672 -12.5661 -12.5585 -12.5545
   -12.5419 -12.5403 -12.5055 -12.4768 -12.4684 -12.4642 -12.4519 -12.4169
   -12.4106 -12.4091 -12.4022 -12.3990 -12.3868 -12.3562 -12.3035 -12.2385
   -12.2318 -12.2191 -12.2082 -12.1226 -12.1091 -12.0983 -12.0736 -12.0359
   -12.0235 -11.9841 -11.9467 -11.9304 -11.9258 -11.9232 -11.9153 -11.9131
   -11.9036 -11.8908 -11.8772 -11.8758 -11.8631 -11.8608 -11.8396 -11.8040
   -11.7783 -11.7654 -11.7610 -11.7182 -11.6489 -11.6337 -11.6109 -11.6107
   -11.6027 -11.5993 -11.5539 -11.5464 -11.5339 -11.5318 -11.5316 -11.5225
   -11.5164 -11.5147 -11.5102 -11.5048 -11.5041 -11.4669 -11.4281 -11.4200
   -11.3536 -11.3218 -11.3150 -11.3071 -11.3056 -11.2992 -11.2541 -11.2088
   -11.2083 -11.1558 -11.1468 -11.1459 -11.1419 -11.1120 -11.0748 -11.0695
   -11.0660 -11.0015 -10.9975 -10.9519 -10.9181 -10.9169 -10.9030 -10.8889
   -10.8875 -10.8745 -10.8565 -10.8475 -10.8470 -10.8314 -10.7890 -10.7759
   -10.7726 -10.7170 -10.7087 -10.6991 -10.6840 -10.6825 -10.6821 -10.6797
   -10.6671 -10.6646 -10.6571 -10.6486 -10.6427 -10.6059 -10.5742 -10.5730
   -10.5570 -10.5538 -10.5367 -10.5072 -10.4838 -10.4160 -10.3995 -10.3675
   -10.3627 -10.3619 -10.3543 -10.3460 -10.3266 -10.3255 -10.3249 -10.2790
   -10.2748 -10.2638 -10.2492 -10.2208 -10.2184 -10.2142 -10.2066 -10.1972
   -10.1876 -10.1623 -10.1427 -10.1334 -10.0996 -10.0991 -10.0683 -10.0660
   -10.0620 -10.0312 -10.0311 -10.0064  -9.9909  -9.9707  -9.9704  -9.9508
    -9.9304  -9.9145  -9.8970  -9.8968  -9.8861  -9.8734  -9.8733  -9.8718
    -9.8657  -9.8630  -9.8520  -9.8518  -9.8333  -9.8252  -9.8218  -9.7729
    -9.7624  -9.7268  -9.7206  -9.7152  -9.7129  -9.6931  -9.6830  -9.6759
    -9.6603  -9.6525  -9.6509  -9.6450  -9.6222  -9.6204  -9.6126  -9.6121
    -9.6107  -9.5927  -9.5901  -9.5697  -9.5680  -9.5602  -9.5492  -9.5423
    -9.5415  -9.5178  -9.4939  -9.4843  -9.4732  -9.4612  -9.4510  -9.4497
    -9.4483  -9.4478  -9.4468  -9.4182  -9.4054  -9.3875  -9.3829  -9.3825
    -9.3812  -9.3805  -9.3790  -9.3621  -9.3548  -9.3513  -9.3340  -9.3306
    -9.3273  -9.3262  -9.3247  -9.3182  -9.3139  -9.3109  -9.3071  -9.3021
    -9.2931  -9.2704  -9.2401  -9.2303  -9.2278  -9.2209  -9.2150  -9.2084
    -9.1969  -9.1959  -9.1903  -9.1874  -9.1806  -9.1791  -9.1605  -9.1598
    -9.1571  -9.1542  -9.1536  -9.1513  -9.1509  -9.1499  -9.1133  -9.1076
    -9.0975  -9.0762  -9.0667  -9.0635  -9.0530  -9.0524  -9.0455  -9.0420
    -9.0414  -9.0324  -9.0310  -9.0204  -9.0037  -8.9974  -8.9910  -8.9658
    -8.9639  -8.9600  -8.9597  -8.9592  -8.9587  -8.9547  -8.9394  -8.9366
    -8.9120  -8.9024  -8.8958  -8.8925  -8.8898  -8.8703  -8.8658  -8.8625
    -8.8612  -8.8551  -8.8404  -8.8388  -8.8371  -8.8264  -8.8248  -8.8138
    -8.8089  -8.8055  -8.8029  -8.8016  -8.8005  -8.7954  -8.7904  -8.7850
    -8.7718  -8.7658  -8.7611  -8.7561  -8.7505  -8.7445  -8.7340  -8.7248
    -8.7142  -8.6980  -8.6937  -8.6859  -8.6790  -8.6786  -8.6776  -8.6760
    -8.6755  -8.6628  -8.6590  -8.6539  -8.6450  -8.6383  -8.6204  -8.6144
    -8.6132  -8.6120  -8.6112  -8.6060  -8.5989  -8.5983  -8.5933  -8.5793
    -8.5609  -8.5526  -8.5522  -8.5493  -8.5324  -8.5165  -8.5127  -8.5090
    -8.5037  -8.4846  -8.4835  -8.4827  -8.4791  -8.4670  -8.4662  -8.4565
    -8.4241  -8.4168  -8.4072  -8.3949  -8.3922  -8.3879  -8.3876  -8.3854
    -8.3556  -8.3480  -8.3435  -8.3407  -8.3296  -8.3208  -8.3068  -8.3067
    -8.3027  -8.3022  -8.2988  -8.2964  -8.2693  -8.2684  -8.2654  -8.2633
    -8.2606  -8.2454  -8.2332  -8.2324  -8.2078  -8.2008  -8.1990  -8.1968
    -8.1845  -8.1624  -8.1618  -8.1479  -8.1335  -8.0895  -8.0832  -8.0600
    -8.0593  -8.0586  -8.0545  -8.0511  -8.0445  -8.0348  -8.0163  -8.0095
    -8.0082  -8.0017  -7.9721  -7.9717  -7.9652  -7.9624  -7.9613  -7.9562
    -7.9548  -7.9491  -7.9057  -7.8999  -7.8942  -7.8849  -7.8789  -7.8780
    -7.8686  -7.8648  -7.8411  -7.8335  -7.8198  -7.8168  -7.8133  -7.8103
    -7.8094  -7.8080  -7.7999  -7.7969  -7.7844  -7.7787  -7.7563  -7.7193
    -7.7137  -7.7065  -7.7060  -7.6959  -7.6952  -7.6941  -7.6718  -7.6587
    -7.6556  -7.6279  -7.6197  -7.6124  -7.6119  -7.6100  -7.6026  -7.5971
    -7.5685  -7.5666  -7.5564  -7.5563  -7.5214  -7.5205  -7.5159  -7.5062
    -7.4676  -7.4562  -7.4540  -7.4511  -7.3936  -7.3851  -7.3738  -7.3724
    -7.3647  -7.3438  -7.3427  -7.3422  -7.3408  -7.3353  -7.3317  -7.3264
    -7.3156  -7.3067  -7.2696  -7.2613  -7.2493  -7.2472  -7.2438  -7.2432
    -7.2159  -7.2017  -7.1951  -7.1784  -7.1740  -7.1579  -7.1502  -7.1490
    -7.1373  -7.1314  -7.1305  -7.1303  -7.0888  -7.0842  -7.0660  -7.0560
    -7.0510  -7.0262  -6.9919  -6.9574  -6.9573  -6.9523  -6.9506  -6.9454
    -6.9268  -6.9238  -6.9211  -6.9193  -6.8988  -6.8976  -6.8836  -6.8805
    -6.8783  -6.8726  -6.8598  -6.8409  -6.8197  -6.7945  -6.7931  -6.7779
    -6.7767  -6.7753  -6.7696  -6.7607  -6.7512  -6.7461  -6.7224  -6.7201
    -6.7020  -6.7010  -6.6927  -6.6789  -6.6656  -6.6388  -6.6363  -6.6347
    -6.6166  -6.6135  -6.5936  -6.5905  -6.5776  -6.5707  -6.5564  -6.5505
    -6.5497  -6.5328  -6.5144  -6.4726  -6.4609  -6.4490  -6.4443  -6.4416
    -6.4241  -6.3972  -6.3816  -6.3576  -6.3546  -6.3534  -6.3514  -6.3148
    -6.3142  -6.3055  -6.2878  -6.2853  -6.2761  -6.2655  -6.2626  -6.2504
    -6.2387  -6.2169  -6.2050  -6.1964  -6.1831  -6.1727  -6.1613  -6.1591
    -6.1460  -6.1447  -6.1425  -6.1350  -6.1237  -6.1215  -6.1058  -6.0949
    -6.0720  -6.0631  -6.0590  -6.0469  -6.0284  -6.0203  -6.0189  -6.0177
    -6.0080  -6.0016  -5.9993  -5.9876  -5.9709  -5.9665  -5.9612  -5.9516
    -5.9449  -5.9138  -5.8938  -5.8709  -5.8202  -5.8130  -5.7934  -5.7686
    -5.7618  -5.7614  -5.7443  -5.7248  -5.7238  -5.7226  -5.7151  -5.7129
    -5.6893  -5.6665  -5.6487  -5.6262  -5.6185  -5.6145  -5.6039  -5.5968
    -5.5747  -5.5740  -5.5613  -5.5495  -5.5397  -5.5269  -5.5255  -5.5239
    -5.5180  -5.5127  -5.5127  -5.5070  -5.5019  -5.4955  -5.4944  -5.4492
    -5.4338  -5.4244  -5.4212  -5.4181  -5.4153  -5.4150  -5.3867  -5.3846
    -5.3426  -5.3413  -5.3306  -5.3167  -5.3127  -5.3123  -5.3074  -5.2932
    -5.2835  -5.2322  -5.2104  -5.1604  -5.1375  -5.1208  -5.1162  -5.0808
    -5.0670  -5.0660  -5.0571  -5.0565  -4.9850  -4.9771  -4.9690  -4.9667
    -4.9539  -4.9397  -4.8920  -4.8586  -4.8264  -4.8200  -4.8018  -4.7433
    -4.7368  -4.7345  -4.6857  -4.6728  -0.2034  -0.1127  -0.0898  -0.0605
     0.0048   0.0514   0.0550   0.0588   0.0784   0.0916   0.0992   0.1042
     0.1068   0.1239   0.1353   0.1565   0.1608   0.1642   0.1675   0.1732
     0.1757

     highest occupied, lowest unoccupied level (ev):    -4.6513   -0.2090

!    total energy              =  -10249.33162106 Ry
     total all-electron energy =    -40959.943747 Ry
     estimated scf accuracy    <       0.00000005 Ry

     The total energy is the sum of the following terms:
     one-electron contribution =  -90101.13765531 Ry
     hartree contribution      =   45462.09905114 Ry
     xc contribution           =   -2267.17972483 Ry
     ewald contribution        =   40040.59963594 Ry
     one-center paw contrib.   =   -3383.71292800 Ry

     convergence has been achieved in  11 iterations

     Writing all to output data dir ./hBN_water_Oup_Hdown.save/

     init_run     :    815.29s CPU    822.56s WALL (       1 calls)
     electrons    :  20827.79s CPU  20930.61s WALL (       1 calls)

     Called by init_run:
     wfcinit      :    790.17s CPU    796.49s WALL (       1 calls)
     potinit      :      3.34s CPU      3.42s WALL (       1 calls)
     hinit0       :      5.32s CPU      5.35s WALL (       1 calls)

     Called by electrons:
     c_bands      :  19109.71s CPU  19191.95s WALL (      11 calls)
     sum_band     :   1689.49s CPU   1701.95s WALL (      11 calls)
     v_of_rho     :      5.91s CPU      6.04s WALL (      12 calls)
     newd         :     20.95s CPU     28.99s WALL (      12 calls)
     PAW_pot      :      1.90s CPU      1.91s WALL (      12 calls)
     mix_rho      :      1.69s CPU      1.74s WALL (      11 calls)

     Called by c_bands:
     init_us_2    :     93.70s CPU     94.78s WALL (      92 calls)
     init_us_2:cp :     93.70s CPU     94.78s WALL (      92 calls)
     cegterg      :  19012.26s CPU  19091.39s WALL (      52 calls)

     Called by *egterg:
     cdiaghg      :    160.66s CPU    166.04s WALL (     435 calls)
     h_psi        :  10138.40s CPU  10178.27s WALL (     439 calls)
     s_psi        :   2800.50s CPU   2804.61s WALL (     439 calls)
     g_psi        :     15.54s CPU     15.58s WALL (     383 calls)

     Called by h_psi:
     h_psi:calbec :   2931.07s CPU   2933.86s WALL (     439 calls)
     vloc_psi     :   4369.75s CPU   4380.90s WALL (     439 calls)
     add_vuspsi   :   2806.82s CPU   2817.83s WALL (     439 calls)

     General routines
     calbec       :   3699.81s CPU   3703.15s WALL (     483 calls)
     fft          :      4.15s CPU      4.23s WALL (     132 calls)
     ffts         :      0.28s CPU      0.30s WALL (      11 calls)
     fftw         :   4265.67s CPU   4276.08s WALL (  361644 calls)

     Parallel routines

     PWSCF        :      6h 2m CPU      6h 5m WALL


   This run was terminated on:   2: 6: 8  26Oct2022            

=------------------------------------------------------------------------------=
   JOB DONE.
=------------------------------------------------------------------------------=
