[1666305383.570396] [rustyamd2:2188046:0]       rdmacm_cm.c:917  UCX  ERROR rdma_create_event_channel failed: Operation not permitted

     Program PWSCF v.7.1 starts on 20Oct2022 at 18:36:23 
        Git branch: HEAD
        Last git commit: 564a7b486665e8dd0223d6e514b84195d1a96c10
        Last git commit date: Tue Jun 14 16:16:48 2022 +0000
        Last git commit subject: Merge branch 'update_version_number' into 'develop

     This program is part of the open-source Quantum ESPRESSO suite
     for quantum simulation of materials; please cite
         "P. Giannozzi et al., J. Phys.:Condens. Matter 21 395502 (2009);
         "P. Giannozzi et al., J. Phys.:Condens. Matter 29 465901 (2017);
         "P. Giannozzi et al., J. Chem. Phys. 152 154105 (2020);
          URL http://www.quantum-espresso.org", 
     in publications or presentations arising from this work. More details at
     http://www.quantum-espresso.org/quote

     Parallel version (MPI & OpenMP), running on       1 processor cores
     Number of MPI processes:                 1
     Threads/MPI process:                     1

     MPI processes distributed on     1 nodes
     447953 MiB available memory on the printing compute node when the environment starts

     Waiting for input...
     Reading input from standard input

     Current dimensions of program PWSCF are:
     Max number of different atomic species (ntypx) = 10
     Max number of k-points (npk) =  40000
     Max angular momentum in pseudopotentials (lmaxx) =  4
     file N.pbe-n-kjpaw_psl.1.0.0.UPF: wavefunction(s)  2S renormalized
     file O.pbe-n-kjpaw_psl.1.0.0.UPF: wavefunction(s)  2S 2P renormalized
     file H.pbe-kjpaw_psl.1.0.0.UPF: wavefunction(s)  1S renormalized
     Message from routine setup:
     using ibrav=0 with symmetry is DISCOURAGED, use correct ibrav instead

     Subspace diagonalization in iterative solution of the eigenvalue problem:
     a serial algorithm will be used


     G-vector sticks info
     --------------------
     sticks:   dense  smooth     PW     G-vecs:    dense   smooth      PW
     Sum        1271    1271    367               219497   219497   33629

     Using Slab Decomposition



     bravais-lattice index     =            0
     lattice parameter (alat)  =       9.4658  a.u.
     unit-cell volume          =    4399.1244 (a.u.)^3
     number of atoms/cell      =           11
     number of atomic types    =            4
     number of electrons       =        40.00
     number of Kohn-Sham states=           33
     kinetic-energy cutoff     =      51.4490  Ry
     charge density cutoff     =     205.7961  Ry
     scf convergence threshold =      1.0E-06
     mixing beta               =       0.7000
     number of iterations used =            8  plain     mixing
     Exchange-correlation= SLA  PW   PBX  PBC
                           (   1   4   3   4   0   0   0)

     celldm(1)=   9.465808  celldm(2)=   0.000000  celldm(3)=   0.000000
     celldm(4)=   0.000000  celldm(5)=   0.000000  celldm(6)=   0.000000

     crystal axes: (cart. coord. in units of alat)
               a(1) = (   1.000000   0.000000   0.000000 )  
               a(2) = (   0.000000   0.866026   0.000000 )  
               a(3) = (   0.000000   0.000000   5.989112 )  

     reciprocal axes: (cart. coord. in units 2 pi/alat)
               b(1) = (  1.000000  0.000000  0.000000 )  
               b(2) = (  0.000000  1.154700  0.000000 )  
               b(3) = (  0.000000  0.000000  0.166970 )  


     PseudoPot. # 1 for B  read from file:
     ./B.pbe-n-kjpaw_psl.1.0.0.UPF
     MD5 check sum: 8c825a5969375aca5c2c6ad5945b3059
     Pseudo is Projector augmented-wave + core cor, Zval =  3.0
     Generated using &quot;atomic&quot; code by A. Dal Corso  v.6.3
     Shape of augmentation charge: PSQ
     Using radial grid of 1059 points,  4 beta functions with: 
                l(1) =   0
                l(2) =   0
                l(3) =   1
                l(4) =   1
     Q(r) pseudized with 0 coefficients 


     PseudoPot. # 2 for N  read from file:
     ./N.pbe-n-kjpaw_psl.1.0.0.UPF
     MD5 check sum: 14c48229446f9f2d411169a3abcbc3fa
     Pseudo is Projector augmented-wave + core cor, Zval =  5.0
     Generated using &quot;atomic&quot; code by A. Dal Corso  v.6.3
     Shape of augmentation charge: PSQ
     Using radial grid of 1085 points,  4 beta functions with: 
                l(1) =   0
                l(2) =   0
                l(3) =   1
                l(4) =   1
     Q(r) pseudized with 0 coefficients 


     PseudoPot. # 3 for O  read from file:
     ./O.pbe-n-kjpaw_psl.1.0.0.UPF
     MD5 check sum: e99d9cef9b487d1ca56f5b95ecd0fd7a
     Pseudo is Projector augmented-wave + core cor, Zval =  6.0
     Generated using &quot;atomic&quot; code by A. Dal Corso  v.6.3
     Shape of augmentation charge: PSQ
     Using radial grid of 1095 points,  4 beta functions with: 
                l(1) =   0
                l(2) =   0
                l(3) =   1
                l(4) =   1
     Q(r) pseudized with 0 coefficients 


     PseudoPot. # 4 for H  read from file:
     ./H.pbe-kjpaw_psl.1.0.0.UPF
     MD5 check sum: d81a744832360e4a8af0b0b5b123bc2a
     Pseudo is Projector augmented-wave, Zval =  1.0
     Generated using &quot;atomic&quot; code by A. Dal Corso  v.6.3MaX
     Shape of augmentation charge: PSQ
     Using radial grid of  929 points,  2 beta functions with: 
                l(1) =   0
                l(2) =   0
     Q(r) pseudized with 0 coefficients 


     atomic species   valence    mass     pseudopotential
        B              3.00    10.81100     B ( 1.00)
        N              5.00    14.00670     N ( 1.00)
        O              6.00    15.99900     O ( 1.00)
        H              1.00     1.00784     H ( 1.00)

      2 Sym. Ops. (no inversion) found



   Cartesian axes

     site n.     atom                  positions (alat units)
         1           B   tau(   1) = (   0.7500000   0.1443379   1.1978224  )
         2           B   tau(   2) = (   0.2500000   0.1443379   1.1978224  )
         3           B   tau(   3) = (   0.0000000   0.5773507   1.1978224  )
         4           B   tau(   4) = (   0.5000000   0.5773507   1.1978224  )
         5           N   tau(   5) = (   0.7500000   0.7216877   1.1978224  )
         6           N   tau(   6) = (   0.2500000   0.7216877   1.1978224  )
         7           N   tau(   7) = (   0.0000000   0.2886749   1.1978224  )
         8           N   tau(   8) = (   0.5000000   0.2886749   1.1978224  )
         9           O   tau(   9) = (   0.0000000   0.0000000   1.8765864  )
        10           H   tau(  10) = (   0.0000000   0.1511154   1.7596250  )
        11           H   tau(  11) = (   0.0000000   0.7149102   1.7596250  )

     number of k points=     9
                       cart. coord. in units 2pi/alat
        k(    1) = (   0.0000000   0.0000000   0.0000000), wk =   0.1250000
        k(    2) = (   0.0000000   0.2886751   0.0000000), wk =   0.2500000
        k(    3) = (   0.0000000  -0.5773502   0.0000000), wk =   0.1250000
        k(    4) = (   0.2500000   0.0000000   0.0000000), wk =   0.2500000
        k(    5) = (   0.2500000   0.2886751   0.0000000), wk =   0.5000000
        k(    6) = (   0.2500000  -0.5773502   0.0000000), wk =   0.2500000
        k(    7) = (  -0.5000000   0.0000000   0.0000000), wk =   0.1250000
        k(    8) = (  -0.5000000   0.2886751   0.0000000), wk =   0.2500000
        k(    9) = (  -0.5000000  -0.5773502   0.0000000), wk =   0.1250000

     Dense  grid:   219497 G-vectors     FFT dimensions: (  45,  40, 270)

     Estimated max dynamical RAM per process >     473.30 MB

     Check: negative core charge=   -0.000008

     Initial potential from superposition of free atoms

     starting charge      39.9988, renormalised to      40.0000

     negative rho (up, down):  4.688E-03 0.000E+00
     Starting wfcs are   38 randomized atomic wfcs
     Checking if some PAW data can be deallocated... 

     total cpu time spent up to now is       10.5 secs

     per-process dynamical memory:   282.0 Mb

     Self-consistent Calculation

     iteration #  1     ecut=    51.45 Ry     beta= 0.70
     Davidson diagonalization with overlap
     ethr =  1.00E-02,  avg # of iterations =  9.3

     negative rho (up, down):  8.870E-03 0.000E+00

     total cpu time spent up to now is       32.8 secs

     total energy              =    -202.74753407 Ry
     estimated scf accuracy    <       2.06594105 Ry

     iteration #  2     ecut=    51.45 Ry     beta= 0.70
     Davidson diagonalization with overlap
     ethr =  5.16E-03,  avg # of iterations =  4.4

     negative rho (up, down):  8.931E-03 0.000E+00

     total cpu time spent up to now is       49.8 secs

     total energy              =    -203.21518812 Ry
     estimated scf accuracy    <       1.26992392 Ry

     iteration #  3     ecut=    51.45 Ry     beta= 0.70
     Davidson diagonalization with overlap
     ethr =  3.17E-03,  avg # of iterations =  3.9

     negative rho (up, down):  1.045E-02 0.000E+00

     total cpu time spent up to now is       63.7 secs

     total energy              =    -203.45311987 Ry
     estimated scf accuracy    <       0.01575207 Ry

     iteration #  4     ecut=    51.45 Ry     beta= 0.70
     Davidson diagonalization with overlap
     c_bands:  1 eigenvalues not converged
     ethr =  3.94E-05,  avg # of iterations = 15.2

     negative rho (up, down):  1.059E-02 0.000E+00

     total cpu time spent up to now is       94.7 secs

     total energy              =    -203.49014396 Ry
     estimated scf accuracy    <       0.05591628 Ry

     iteration #  5     ecut=    51.45 Ry     beta= 0.70
     Davidson diagonalization with overlap
     ethr =  3.94E-05,  avg # of iterations =  4.2

     negative rho (up, down):  1.112E-02 0.000E+00

     total cpu time spent up to now is      108.7 secs

     total energy              =    -203.48613627 Ry
     estimated scf accuracy    <       0.01448202 Ry

     iteration #  6     ecut=    51.45 Ry     beta= 0.70
     Davidson diagonalization with overlap
     ethr =  3.62E-05,  avg # of iterations =  4.3

     negative rho (up, down):  1.137E-02 0.000E+00

     total cpu time spent up to now is      122.8 secs

     total energy              =    -203.48897564 Ry
     estimated scf accuracy    <       0.00005936 Ry

     iteration #  7     ecut=    51.45 Ry     beta= 0.70
     Davidson diagonalization with overlap
     ethr =  1.48E-07,  avg # of iterations =  8.8

     negative rho (up, down):  1.137E-02 0.000E+00

     total cpu time spent up to now is      144.9 secs

     total energy              =    -203.48911407 Ry
     estimated scf accuracy    <       0.00018775 Ry

     iteration #  8     ecut=    51.45 Ry     beta= 0.70
     Davidson diagonalization with overlap
     ethr =  1.48E-07,  avg # of iterations =  3.8

     negative rho (up, down):  1.136E-02 0.000E+00

     total cpu time spent up to now is      158.5 secs

     total energy              =    -203.48909940 Ry
     estimated scf accuracy    <       0.00006446 Ry

     iteration #  9     ecut=    51.45 Ry     beta= 0.70
     Davidson diagonalization with overlap
     ethr =  1.48E-07,  avg # of iterations =  4.0

     negative rho (up, down):  1.135E-02 0.000E+00

     total cpu time spent up to now is      172.4 secs

     total energy              =    -203.48910968 Ry
     estimated scf accuracy    <       0.00000215 Ry

     iteration # 10     ecut=    51.45 Ry     beta= 0.70
     Davidson diagonalization with overlap
     ethr =  5.37E-09,  avg # of iterations =  3.0

     negative rho (up, down):  1.135E-02 0.000E+00

     total cpu time spent up to now is      186.3 secs

     End of self-consistent calculation

          k = 0.0000 0.0000 0.0000 ( 27515 PWs)   bands (ev):

   -24.1748 -23.2426 -20.2890 -20.2737 -20.1543 -14.4652 -13.1824 -13.1755
   -11.8720 -11.4536 -11.4460 -10.8449  -9.7112  -7.9932  -6.9033  -6.9028
    -6.7028  -6.6905  -6.4725  -5.8864  -1.0724  -0.7547  -0.1757   0.1659
     0.1801   0.5289   1.0783   1.4750   2.0091   2.2531   3.1656   3.4213
     3.9955

          k = 0.0000 0.2887 0.0000 ( 27385 PWs)   bands (ev):

   -24.1673 -22.9445 -20.8934 -20.2250 -20.2145 -13.9683 -13.9649 -13.2317
   -11.9627 -10.4512 -10.4456 -10.4370  -9.3935  -8.1020  -7.9816  -7.5542
    -7.4492  -6.6000  -6.5882  -5.8700  -0.5291  -0.3145  -0.3116   0.3456
     0.7179   1.0295   1.5778   1.9721   2.4801   2.7219   3.0507   3.6081
     3.9208

          k = 0.0000-0.5774 0.0000 ( 27418 PWs)   bands (ev):

   -24.1600 -22.0975 -22.0851 -20.1633 -20.1521 -14.4669 -14.4640 -12.0510
   -10.6711 -10.6617  -9.7123  -9.7093  -9.3019  -9.2562  -8.5311  -8.5219
    -7.9071  -6.4887  -6.4844  -5.8534  -0.7846  -0.7613   0.8157   1.1215
     1.6242   1.8642   2.4449   2.4610   3.0088   3.0115   3.3934   3.4450
     3.5463

          k = 0.2500 0.0000 0.0000 ( 27418 PWs)   bands (ev):

   -24.1740 -23.0185 -21.3727 -20.0156 -19.6172 -14.2852 -13.5434 -12.5887
   -11.8711 -11.7202 -10.5449 -10.5346  -9.9986  -8.3450  -7.9065  -7.7898
    -7.3498  -6.2649  -5.9563  -5.6278  -0.8795  -0.7439  -0.6265   0.1701
     0.8901   1.4432   1.8235   1.8581   2.2828   2.4281   2.6206   3.4093
     3.5446

          k = 0.2500 0.2887 0.0000 ( 27423 PWs)   bands (ev):

   -24.1667 -22.7247 -21.1514 -20.7194 -19.9088 -13.9940 -13.1392 -12.6389
   -11.9609 -11.3063 -10.1894 -10.1437  -9.4377  -8.7886  -8.1018  -7.8621
    -7.8209  -7.3173  -6.1269  -5.9037  -0.6452  -0.1443   0.5991   0.7154
     1.2746   1.3973   1.9435   2.3435   2.6467   2.8701   3.0894   3.4891
     3.8512

          k = 0.2500-0.5774 0.0000 ( 27380 PWs)   bands (ev):

   -24.1596 -21.8934 -21.8809 -20.5723 -20.5616 -13.6983 -13.6953 -12.0481
   -10.8477 -10.8402  -9.7549  -9.7520  -9.1953  -9.1875  -9.0305  -8.9789
    -7.9151  -7.1125  -7.0889  -5.8970   0.1150   0.1495   1.1312   1.5079
     1.8607   2.0886   2.7667   2.7677   3.3083   3.3195   3.5150   3.6868
     3.7528

          k =-0.5000 0.0000 0.0000 ( 27494 PWs)   bands (ev):

   -24.1733 -22.3879 -22.3450 -19.7145 -19.6748 -13.7970 -13.7575 -12.1460
   -12.1323 -11.8643  -9.7418  -9.7365  -9.7042  -9.6004  -8.5264  -8.4993
    -7.9364  -5.9926  -5.7978  -5.7278  -0.8478  -0.7471   0.0136   0.7620
     1.1063   1.6346   1.9750   2.0584   2.5444   2.5712   2.9597   2.9651
     3.4012

          k =-0.5000 0.2887 0.0000 ( 27444 PWs)   bands (ev):

   -24.1662 -22.1124 -22.0694 -20.3000 -20.2589 -13.1894 -13.1667 -11.9614
   -11.4534 -11.4468 -10.6712 -10.6620  -9.3518  -9.2241  -8.5357  -8.5170
    -7.9222  -6.7154  -6.6619  -5.9570   0.0998   0.2058   0.5746   1.2022
     1.5458   1.9752   2.4394   2.4655   3.0066   3.0122   3.4360   3.4366
     3.6452

          k =-0.5000-0.5774 0.0000 ( 27340 PWs)   bands (ev):

   -24.1591 -21.3582 -21.3171 -21.3044 -21.2857 -12.0738 -12.0496 -12.0331
   -12.0182 -12.0076  -9.7869  -9.7730  -9.7570  -9.7435  -8.3973  -8.2360
    -8.1669  -8.1409  -7.7565  -5.9335   1.3629   1.6597   1.6966   1.7684
     2.0280   2.4135   2.4726   2.7161   3.4273   3.5535   3.6195   3.7485
     4.0583

     highest occupied, lowest unoccupied level (ev):    -5.6278   -1.0724

!    total energy              =    -203.48911022 Ry
     total all-electron energy =      -790.488574 Ry
     estimated scf accuracy    <       0.00000040 Ry

     The total energy is the sum of the following terms:
     one-electron contribution =   -1854.15046196 Ry
     hartree contribution      =     934.42427920 Ry
     xc contribution           =     -44.16907471 Ry
     ewald contribution        =     822.71451836 Ry
     one-center paw contrib.   =     -62.30837112 Ry

     convergence has been achieved in  10 iterations

     Writing all to output data dir ./hBN_water_Oup_Hdown.save/

     init_run     :     10.14s CPU     10.27s WALL (       1 calls)
     electrons    :    174.54s CPU    175.90s WALL (       1 calls)

     Called by init_run:
     wfcinit      :      5.35s CPU      5.40s WALL (       1 calls)
     potinit      :      1.81s CPU      1.83s WALL (       1 calls)
     hinit0       :      2.75s CPU      2.77s WALL (       1 calls)

     Called by electrons:
     c_bands      :    147.15s CPU    147.71s WALL (      10 calls)
     sum_band     :     20.99s CPU     21.33s WALL (      10 calls)
     v_of_rho     :      2.40s CPU      2.43s WALL (      11 calls)
     newd         :      1.54s CPU      1.89s WALL (      11 calls)
     PAW_pot      :      2.75s CPU      2.75s WALL (      11 calls)
     mix_rho      :      0.26s CPU      0.27s WALL (      10 calls)

     Called by c_bands:
     init_us_2    :      1.42s CPU      1.43s WALL (     189 calls)
     init_us_2:cp :      1.42s CPU      1.43s WALL (     189 calls)
     cegterg      :    144.70s CPU    144.87s WALL (      90 calls)

     Called by *egterg:
     cdiaghg      :      0.66s CPU      0.67s WALL (     639 calls)
     h_psi        :    116.70s CPU    116.82s WALL (     648 calls)
     s_psi        :      6.10s CPU      6.13s WALL (     648 calls)
     g_psi        :      0.53s CPU      0.53s WALL (     549 calls)

     Called by h_psi:
     h_psi:calbec :      5.55s CPU      5.56s WALL (     648 calls)
     vloc_psi     :    104.55s CPU    104.63s WALL (     648 calls)
     add_vuspsi   :      6.16s CPU      6.16s WALL (     648 calls)

     General routines
     calbec       :      7.07s CPU      7.08s WALL (     738 calls)
     fft          :      0.65s CPU      0.68s WALL (     121 calls)
     ffts         :      0.05s CPU      0.05s WALL (      10 calls)
     fftw         :    112.67s CPU    112.74s WALL (   21390 calls)

     Parallel routines

     PWSCF        :   3m 4.94s CPU   3m 6.77s WALL


   This run was terminated on:  18:39:30  20Oct2022            

=------------------------------------------------------------------------------=
   JOB DONE.
=------------------------------------------------------------------------------=
