
     Program PWSCF v.7.1 starts on 20Oct2022 at 23: 2:56 
        Git branch: HEAD
        Last git commit: 564a7b486665e8dd0223d6e514b84195d1a96c10
        Last git commit date: Tue Jun 14 16:16:48 2022 +0000
        Last git commit subject: Merge branch 'update_version_number' into 'develop

     This program is part of the open-source Quantum ESPRESSO suite
     for quantum simulation of materials; please cite
         "P. Giannozzi et al., J. Phys.:Condens. Matter 21 395502 (2009);
         "P. Giannozzi et al., J. Phys.:Condens. Matter 29 465901 (2017);
         "P. Giannozzi et al., J. Chem. Phys. 152 154105 (2020);
          URL http://www.quantum-espresso.org", 
     in publications or presentations arising from this work. More details at
     http://www.quantum-espresso.org/quote

     Parallel version (MPI & OpenMP), running on     128 processor cores
     Number of MPI processes:               128
     Threads/MPI process:                     1

     MPI processes distributed on     1 nodes
     967864 MiB available memory on the printing compute node when the environment starts

     Waiting for input...
     Reading input from standard input

     Current dimensions of program PWSCF are:
     Max number of different atomic species (ntypx) = 10
     Max number of k-points (npk) =  40000
     Max angular momentum in pseudopotentials (lmaxx) =  4
     file N.pbe-n-kjpaw_psl.1.0.0.UPF: wavefunction(s)  2S renormalized
     file O.pbe-n-kjpaw_psl.1.0.0.UPF: wavefunction(s)  2S 2P renormalized
     file H.pbe-kjpaw_psl.1.0.0.UPF: wavefunction(s)  1S renormalized
     Found identity + (  0.0000  0.3333  0.0000) symmetry
     This is a supercell, fractional translations are disabled
     Message from routine setup:
     using ibrav=0 with symmetry is DISCOURAGED, use correct ibrav instead

     R & G space division:  proc/nbgrp/npool/nimage =     128
     Subspace diagonalization in iterative solution of the eigenvalue problem:
     one sub-group per band group will be used
     scalapack distributed-memory algorithm (size of sub-group:  3*  3 procs)


     Parallelization info
     --------------------
     sticks:   dense  smooth     PW     G-vecs:    dense   smooth      PW
     Min          89      89     23                15415    15415    2005
     Max          90      90     24                15430    15430    2027
     Sum       11441   11441   2945              1974027  1974027  258551

     Using Slab Decomposition



     bravais-lattice index     =            0
     lattice parameter (alat)  =      28.3974  a.u.
     unit-cell volume          =   39592.1192 (a.u.)^3
     number of atoms/cell      =           99
     number of atomic types    =            4
     number of electrons       =       360.00
     number of Kohn-Sham states=          297
     kinetic-energy cutoff     =      51.4490  Ry
     charge density cutoff     =     205.7961  Ry
     scf convergence threshold =      1.0E-06
     mixing beta               =       0.7000
     number of iterations used =            8  plain     mixing
     Exchange-correlation= SLA  PW   PBX  PBC
                           (   1   4   3   4   0   0   0)

     celldm(1)=  28.397425  celldm(2)=   0.000000  celldm(3)=   0.000000
     celldm(4)=   0.000000  celldm(5)=   0.000000  celldm(6)=   0.000000

     crystal axes: (cart. coord. in units of alat)
               a(1) = (   1.000000   0.000000   0.000000 )  
               a(2) = (   0.000000   0.866026   0.000000 )  
               a(3) = (   0.000000   0.000000   1.996371 )  

     reciprocal axes: (cart. coord. in units 2 pi/alat)
               b(1) = (  1.000000  0.000000  0.000000 )  
               b(2) = (  0.000000  1.154700  0.000000 )  
               b(3) = (  0.000000  0.000000  0.500909 )  


     PseudoPot. # 1 for B  read from file:
     ./B.pbe-n-kjpaw_psl.1.0.0.UPF
     MD5 check sum: 8c825a5969375aca5c2c6ad5945b3059
     Pseudo is Projector augmented-wave + core cor, Zval =  3.0
     Generated using &quot;atomic&quot; code by A. Dal Corso  v.6.3
     Shape of augmentation charge: PSQ
     Using radial grid of 1059 points,  4 beta functions with: 
                l(1) =   0
                l(2) =   0
                l(3) =   1
                l(4) =   1
     Q(r) pseudized with 0 coefficients 


     PseudoPot. # 2 for N  read from file:
     ./N.pbe-n-kjpaw_psl.1.0.0.UPF
     MD5 check sum: 14c48229446f9f2d411169a3abcbc3fa
     Pseudo is Projector augmented-wave + core cor, Zval =  5.0
     Generated using &quot;atomic&quot; code by A. Dal Corso  v.6.3
     Shape of augmentation charge: PSQ
     Using radial grid of 1085 points,  4 beta functions with: 
                l(1) =   0
                l(2) =   0
                l(3) =   1
                l(4) =   1
     Q(r) pseudized with 0 coefficients 


     PseudoPot. # 3 for O  read from file:
     ./O.pbe-n-kjpaw_psl.1.0.0.UPF
     MD5 check sum: e99d9cef9b487d1ca56f5b95ecd0fd7a
     Pseudo is Projector augmented-wave + core cor, Zval =  6.0
     Generated using &quot;atomic&quot; code by A. Dal Corso  v.6.3
     Shape of augmentation charge: PSQ
     Using radial grid of 1095 points,  4 beta functions with: 
                l(1) =   0
                l(2) =   0
                l(3) =   1
                l(4) =   1
     Q(r) pseudized with 0 coefficients 


     PseudoPot. # 4 for H  read from file:
     ./H.pbe-kjpaw_psl.1.0.0.UPF
     MD5 check sum: d81a744832360e4a8af0b0b5b123bc2a
     Pseudo is Projector augmented-wave, Zval =  1.0
     Generated using &quot;atomic&quot; code by A. Dal Corso  v.6.3MaX
     Shape of augmentation charge: PSQ
     Using radial grid of  929 points,  2 beta functions with: 
                l(1) =   0
                l(2) =   0
     Q(r) pseudized with 0 coefficients 


     atomic species   valence    mass     pseudopotential
        B              3.00    10.81100     B ( 1.00)
        N              5.00    14.00670     N ( 1.00)
        O              6.00    15.99900     O ( 1.00)
        H              1.00     1.00784     H ( 1.00)

      2 Sym. Ops. (no inversion) found



   Cartesian axes

     site n.     atom                  positions (alat units)
         1           B   tau(   1) = (   0.9166670   0.0481129   0.3992741  )
         2           B   tau(   2) = (   0.9166670   0.3367878   0.3992741  )
         3           B   tau(   3) = (   0.9166670   0.6254627   0.3992741  )
         4           B   tau(   4) = (   0.2500000   0.0481129   0.3992741  )
         5           B   tau(   5) = (   0.2500000   0.3367878   0.3992741  )
         6           B   tau(   6) = (   0.2500000   0.6254627   0.3992741  )
         7           B   tau(   7) = (   0.5833330   0.0481129   0.3992741  )
         8           B   tau(   8) = (   0.5833330   0.3367878   0.3992741  )
         9           B   tau(   9) = (   0.5833330   0.6254627   0.3992741  )
        10           B   tau(  10) = (   0.0833330   0.0481129   0.3992741  )
        11           B   tau(  11) = (   0.0833330   0.3367878   0.3992741  )
        12           B   tau(  12) = (   0.0833330   0.6254627   0.3992741  )
        13           B   tau(  13) = (   0.4166670   0.0481129   0.3992741  )
        14           B   tau(  14) = (   0.4166670   0.3367878   0.3992741  )
        15           B   tau(  15) = (   0.4166670   0.6254627   0.3992741  )
        16           B   tau(  16) = (   0.7500000   0.0481129   0.3992741  )
        17           B   tau(  17) = (   0.7500000   0.3367878   0.3992741  )
        18           B   tau(  18) = (   0.7500000   0.6254627   0.3992741  )
        19           B   tau(  19) = (   0.0000000   0.7698006   0.3992741  )
        20           B   tau(  20) = (   0.0000000   0.1924499   0.3992741  )
        21           B   tau(  21) = (   0.0000000   0.4811257   0.3992741  )
        22           B   tau(  22) = (   0.3333330   0.7698006   0.3992741  )
        23           B   tau(  23) = (   0.3333330   0.1924499   0.3992741  )
        24           B   tau(  24) = (   0.3333330   0.4811257   0.3992741  )
        25           B   tau(  25) = (   0.6666670   0.7698006   0.3992741  )
        26           B   tau(  26) = (   0.6666670   0.1924499   0.3992741  )
        27           B   tau(  27) = (   0.6666670   0.4811257   0.3992741  )
        28           B   tau(  28) = (   0.1666670   0.7698006   0.3992741  )
        29           B   tau(  29) = (   0.1666670   0.1924499   0.3992741  )
        30           B   tau(  30) = (   0.1666670   0.4811257   0.3992741  )
        31           B   tau(  31) = (   0.5000000   0.7698006   0.3992741  )
        32           B   tau(  32) = (   0.5000000   0.1924499   0.3992741  )
        33           B   tau(  33) = (   0.5000000   0.4811257   0.3992741  )
        34           B   tau(  34) = (   0.8333330   0.7698006   0.3992741  )
        35           B   tau(  35) = (   0.8333330   0.1924499   0.3992741  )
        36           B   tau(  36) = (   0.8333330   0.4811257   0.3992741  )
        37           N   tau(  37) = (   0.9166670   0.8179126   0.3992741  )
        38           N   tau(  38) = (   0.9166670   0.2405628   0.3992741  )
        39           N   tau(  39) = (   0.9166670   0.5292377   0.3992741  )
        40           N   tau(  40) = (   0.2500000   0.8179126   0.3992741  )
        41           N   tau(  41) = (   0.2500000   0.2405628   0.3992741  )
        42           N   tau(  42) = (   0.2500000   0.5292377   0.3992741  )
        43           N   tau(  43) = (   0.5833330   0.8179126   0.3992741  )
        44           N   tau(  44) = (   0.5833330   0.2405628   0.3992741  )
        45           N   tau(  45) = (   0.5833330   0.5292377   0.3992741  )
        46           N   tau(  46) = (   0.0833330   0.8179126   0.3992741  )
        47           N   tau(  47) = (   0.0833330   0.2405628   0.3992741  )
        48           N   tau(  48) = (   0.0833330   0.5292377   0.3992741  )
        49           N   tau(  49) = (   0.4166670   0.8179126   0.3992741  )
        50           N   tau(  50) = (   0.4166670   0.2405628   0.3992741  )
        51           N   tau(  51) = (   0.4166670   0.5292377   0.3992741  )
        52           N   tau(  52) = (   0.7500000   0.8179126   0.3992741  )
        53           N   tau(  53) = (   0.7500000   0.2405628   0.3992741  )
        54           N   tau(  54) = (   0.7500000   0.5292377   0.3992741  )
        55           N   tau(  55) = (   0.0000000   0.0962250   0.3992741  )
        56           N   tau(  56) = (   0.0000000   0.3848999   0.3992741  )
        57           N   tau(  57) = (   0.0000000   0.6735756   0.3992741  )
        58           N   tau(  58) = (   0.3333330   0.0962250   0.3992741  )
        59           N   tau(  59) = (   0.3333330   0.3848999   0.3992741  )
        60           N   tau(  60) = (   0.3333330   0.6735756   0.3992741  )
        61           N   tau(  61) = (   0.6666670   0.0962250   0.3992741  )
        62           N   tau(  62) = (   0.6666670   0.3848999   0.3992741  )
        63           N   tau(  63) = (   0.6666670   0.6735756   0.3992741  )
        64           N   tau(  64) = (   0.1666670   0.0962250   0.3992741  )
        65           N   tau(  65) = (   0.1666670   0.3848999   0.3992741  )
        66           N   tau(  66) = (   0.1666670   0.6735756   0.3992741  )
        67           N   tau(  67) = (   0.5000000   0.0962250   0.3992741  )
        68           N   tau(  68) = (   0.5000000   0.3848999   0.3992741  )
        69           N   tau(  69) = (   0.5000000   0.6735756   0.3992741  )
        70           N   tau(  70) = (   0.8333330   0.0962250   0.3992741  )
        71           N   tau(  71) = (   0.8333330   0.3848999   0.3992741  )
        72           N   tau(  72) = (   0.8333330   0.6735756   0.3992741  )
        73           O   tau(  73) = (   0.0000000   0.0000000   0.6255288  )
        74           O   tau(  74) = (   0.0000000   0.2886749   0.6255288  )
        75           O   tau(  75) = (   0.0000000   0.5773507   0.6255288  )
        76           O   tau(  76) = (   0.3333330   0.0000000   0.6255288  )
        77           O   tau(  77) = (   0.3333330   0.2886749   0.6255288  )
        78           O   tau(  78) = (   0.3333330   0.5773507   0.6255288  )
        79           O   tau(  79) = (   0.6666670   0.0000000   0.6255288  )
        80           O   tau(  80) = (   0.6666670   0.2886749   0.6255288  )
        81           O   tau(  81) = (   0.6666670   0.5773507   0.6255288  )
        82           H   tau(  82) = (   0.0000000   0.0503715   0.5865417  )
        83           H   tau(  83) = (   0.0000000   0.3390473   0.5865417  )
        84           H   tau(  84) = (   0.0000000   0.6277222   0.5865417  )
        85           H   tau(  85) = (   0.3333330   0.0503715   0.5865417  )
        86           H   tau(  86) = (   0.3333330   0.3390473   0.5865417  )
        87           H   tau(  87) = (   0.3333330   0.6277222   0.5865417  )
        88           H   tau(  88) = (   0.6666670   0.0503715   0.5865417  )
        89           H   tau(  89) = (   0.6666670   0.3390473   0.5865417  )
        90           H   tau(  90) = (   0.6666670   0.6277222   0.5865417  )
        91           H   tau(  91) = (   0.0000000   0.8156541   0.5865417  )
        92           H   tau(  92) = (   0.0000000   0.2383034   0.5865417  )
        93           H   tau(  93) = (   0.0000000   0.5269783   0.5865417  )
        94           H   tau(  94) = (   0.3333330   0.8156541   0.5865417  )
        95           H   tau(  95) = (   0.3333330   0.2383034   0.5865417  )
        96           H   tau(  96) = (   0.3333330   0.5269783   0.5865417  )
        97           H   tau(  97) = (   0.6666670   0.8156541   0.5865417  )
        98           H   tau(  98) = (   0.6666670   0.2383034   0.5865417  )
        99           H   tau(  99) = (   0.6666670   0.5269783   0.5865417  )

     number of k points=     4
                       cart. coord. in units 2pi/alat
        k(    1) = (   0.0000000   0.0000000   0.0000000), wk =   0.2222222
        k(    2) = (   0.0000000   0.3849001   0.0000000), wk =   0.4444444
        k(    3) = (   0.3333333   0.0000000   0.0000000), wk =   0.4444444
        k(    4) = (   0.3333333   0.3849001   0.0000000), wk =   0.8888889

     Dense  grid:  1974027 G-vectors     FFT dimensions: ( 135, 120, 270)

     Estimated max dynamical RAM per process >     133.55 MB

     Estimated total dynamical RAM >      16.69 GB

     Check: negative core charge=   -0.000008

     Initial potential from superposition of free atoms

     starting charge     359.9894, renormalised to     360.0000

     negative rho (up, down):  4.219E-02 0.000E+00
     Starting wfcs are  342 randomized atomic wfcs
     Checking if some PAW data can be deallocated... 

     total cpu time spent up to now is       10.4 secs

     per-process dynamical memory:   218.8 Mb

     Self-consistent Calculation

     iteration #  1     ecut=    51.45 Ry     beta= 0.70
     Davidson diagonalization with overlap
     ethr =  1.00E-02,  avg # of iterations = 10.2

     negative rho (up, down):  7.970E-02 0.000E+00

     total cpu time spent up to now is       50.1 secs

     total energy              =   -1824.73727212 Ry
     estimated scf accuracy    <      18.57774861 Ry

     iteration #  2     ecut=    51.45 Ry     beta= 0.70
     Davidson diagonalization with overlap
     ethr =  5.16E-03,  avg # of iterations =  5.0

     negative rho (up, down):  7.968E-02 0.000E+00

     total cpu time spent up to now is       77.8 secs

     total energy              =   -1829.03407448 Ry
     estimated scf accuracy    <      10.98484150 Ry

     iteration #  3     ecut=    51.45 Ry     beta= 0.70
     Davidson diagonalization with overlap
     ethr =  3.05E-03,  avg # of iterations =  3.2

     negative rho (up, down):  9.462E-02 0.000E+00

     total cpu time spent up to now is       97.3 secs

     total energy              =   -1831.02468196 Ry
     estimated scf accuracy    <       0.18875475 Ry

     iteration #  4     ecut=    51.45 Ry     beta= 0.70
     Davidson diagonalization with overlap
     c_bands:  4 eigenvalues not converged
     c_bands:  4 eigenvalues not converged
     c_bands:  2 eigenvalues not converged
     ethr =  5.24E-05,  avg # of iterations = 19.0

     negative rho (up, down):  9.610E-02 0.000E+00

     total cpu time spent up to now is      155.5 secs

     total energy              =   -1831.40749614 Ry
     estimated scf accuracy    <       0.80432262 Ry

     iteration #  5     ecut=    51.45 Ry     beta= 0.70
     Davidson diagonalization with overlap
     c_bands:  1 eigenvalues not converged
     ethr =  5.24E-05,  avg # of iterations = 10.5

     negative rho (up, down):  9.996E-02 0.000E+00

     total cpu time spent up to now is      179.9 secs

     total energy              =   -1831.36859024 Ry
     estimated scf accuracy    <       0.18424768 Ry

     iteration #  6     ecut=    51.45 Ry     beta= 0.70
     Davidson diagonalization with overlap
     ethr =  5.12E-05,  avg # of iterations =  4.2

     negative rho (up, down):  1.024E-01 0.000E+00

     total cpu time spent up to now is      200.5 secs

     total energy              =   -1831.40143128 Ry
     estimated scf accuracy    <       0.00083705 Ry

     iteration #  7     ecut=    51.45 Ry     beta= 0.70
     Davidson diagonalization with overlap
     c_bands:  3 eigenvalues not converged
     c_bands:  2 eigenvalues not converged
     ethr =  2.33E-07,  avg # of iterations = 16.0

     negative rho (up, down):  1.023E-01 0.000E+00

     total cpu time spent up to now is      244.7 secs

     total energy              =   -1831.40309925 Ry
     estimated scf accuracy    <       0.00190249 Ry

     iteration #  8     ecut=    51.45 Ry     beta= 0.70
     Davidson diagonalization with overlap
     ethr =  2.33E-07,  avg # of iterations =  8.5

     negative rho (up, down):  1.022E-01 0.000E+00

     total cpu time spent up to now is      267.0 secs

     total energy              =   -1831.40311092 Ry
     estimated scf accuracy    <       0.00031422 Ry

     iteration #  9     ecut=    51.45 Ry     beta= 0.70
     Davidson diagonalization with overlap
     ethr =  8.73E-08,  avg # of iterations =  5.0

     negative rho (up, down):  1.021E-01 0.000E+00

     total cpu time spent up to now is      287.6 secs

     total energy              =   -1831.40315801 Ry
     estimated scf accuracy    <       0.00001871 Ry

     iteration # 10     ecut=    51.45 Ry     beta= 0.70
     Davidson diagonalization with overlap
     ethr =  5.20E-09,  avg # of iterations =  5.0

     negative rho (up, down):  1.022E-01 0.000E+00

     total cpu time spent up to now is      312.1 secs

     total energy              =   -1831.40317221 Ry
     estimated scf accuracy    <       0.00001388 Ry

     iteration # 11     ecut=    51.45 Ry     beta= 0.70
     Davidson diagonalization with overlap
     ethr =  3.86E-09,  avg # of iterations =  2.5

     negative rho (up, down):  1.022E-01 0.000E+00

     total cpu time spent up to now is      329.7 secs

     total energy              =   -1831.40317135 Ry
     estimated scf accuracy    <       0.00000396 Ry

     iteration # 12     ecut=    51.45 Ry     beta= 0.70
     Davidson diagonalization with overlap
     ethr =  1.10E-09,  avg # of iterations =  5.0

     negative rho (up, down):  1.022E-01 0.000E+00

     total cpu time spent up to now is      351.7 secs

     End of self-consistent calculation

          k = 0.0000 0.0000 0.0000 (246841 PWs)   bands (ev):

   -24.1756 -24.1745 -24.1742 -24.1646 -24.1644 -24.1638 -24.1637 -24.1636
   -24.1634 -23.2430 -22.8468 -22.8468 -22.7172 -22.7171 -22.3364 -22.3364
   -22.3364 -22.3364 -21.7322 -21.7321 -21.3023 -21.3022 -21.3018 -21.3018
   -21.3018 -21.3017 -20.9788 -20.9788 -20.9787 -20.9787 -20.2896 -20.2739
   -20.2502 -20.2502 -20.2501 -20.2501 -20.1955 -20.1954 -20.1840 -20.1839
   -20.1549 -19.9164 -19.9164 -19.5758 -19.5758 -14.4653 -14.2357 -14.2356
   -14.2322 -14.2321 -14.1479 -14.1478 -13.6397 -13.6397 -13.6397 -13.6396
   -13.4884 -13.4884 -13.1831 -13.1755 -12.7398 -12.7398 -12.4588 -12.4588
   -12.4588 -12.4588 -12.4500 -12.4499 -12.4376 -12.4376 -12.4376 -12.4376
   -12.0064 -12.0063 -12.0034 -12.0033 -12.0031 -12.0030 -11.8726 -11.8702
   -11.8700 -11.4539 -11.4461 -11.0950 -11.0950 -11.0518 -11.0518 -10.8849
   -10.8848 -10.8848 -10.8848 -10.8453 -10.3628 -10.3628 -10.3627 -10.3627
   -10.3142 -10.3142 -10.1293 -10.1292 -10.0676 -10.0676 -10.0633 -10.0632
    -9.8740  -9.8740  -9.8739  -9.8739  -9.7116  -9.6185  -9.6185  -9.6185
    -9.6184  -9.4924  -9.4924  -9.1561  -9.1560  -9.1556  -9.1556  -9.1556
    -9.1555  -8.8776  -8.8775  -8.8090  -8.8089  -8.4706  -8.4705  -8.4705
    -8.4705  -8.3854  -8.3854  -8.2417  -8.2416  -8.2416  -8.2415  -8.2247
    -8.2246  -7.9941  -7.9285  -7.9282  -7.9255  -7.9254  -7.9253  -7.9253
    -7.8857  -7.8856  -7.7947  -7.7946  -7.6758  -7.6758  -7.6483  -7.6482
    -7.6482  -7.6481  -6.9037  -6.9031  -6.7032  -6.6912  -6.6420  -6.6420
    -6.6419  -6.6419  -6.5459  -6.5459  -6.5383  -6.5383  -6.4732  -6.1150
    -6.1149  -5.9723  -5.9719  -5.9269  -5.9267  -5.9265  -5.9264  -5.8873
    -5.8627  -5.8625  -5.5630  -5.5630  -1.0724  -0.9090  -0.9090  -0.7547
    -0.7280  -0.7279  -0.5774  -0.5773  -0.5428  -0.5427  -0.4041  -0.4041
    -0.1756  -0.0961  -0.0960  -0.0960  -0.0960  -0.0847  -0.0847   0.1660
     0.1798   0.4107   0.4107   0.4947   0.4948   0.4948   0.4948   0.5290
     0.7303   0.7303   1.0784   1.1624   1.1624   1.1746   1.1746   1.1746
     1.1746   1.2999   1.2999   1.2999   1.2999   1.4008   1.4008   1.4750
     1.4836   1.4837   1.5194   1.5195   1.5195   1.5196   1.6757   1.6757
     1.7999   1.7999   1.9608   1.9608   2.0091   2.0377   2.0377   2.0377
     2.0377   2.0628   2.0628   2.1484   2.1484   2.2531   2.3388   2.3388
     2.3690   2.3690   2.4154   2.4154   2.4154   2.4154   2.6116   2.6116
     2.6116   2.6116   2.6646   2.6646   2.8671   2.8671   2.9025   2.9025
     2.9799   2.9799   3.0051   3.0051   3.0052   3.0052   3.0277   3.0277
     3.0277   3.0277   3.0903   3.0903   3.1656   3.4213   3.4384   3.4385
     3.4385   3.4385   3.4720   3.4721   3.5918   3.5918   3.5918   3.5918
     3.6023   3.6024   3.7316   3.7316   3.7317   3.7319   3.7635   3.7636
     3.8542

          k = 0.0000 0.3849 0.0000 (246750 PWs)   bands (ev):

   -24.1738 -24.1728 -24.1726 -24.1695 -24.1686 -24.1683 -24.1613 -24.1606
   -24.1604 -23.1837 -23.0069 -22.7891 -22.7890 -22.6173 -22.6173 -22.3232
   -21.9560 -21.9560 -21.8412 -21.6827 -21.6826 -21.5366 -21.5366 -21.4933
   -21.4933 -20.9902 -20.9902 -20.7643 -20.6280 -20.6280 -20.4728 -20.4728
   -20.3397 -20.2639 -20.2603 -20.2360 -20.2252 -20.1679 -20.1561 -20.0738
   -20.0738 -19.9082 -19.9081 -19.6647 -19.6647 -14.4408 -14.4374 -14.1924
   -13.9128 -13.9128 -13.8641 -13.8602 -13.7264 -13.7263 -13.6269 -13.6269
   -13.4646 -13.4249 -13.4191 -13.3759 -13.3759 -13.2897 -13.2897 -12.9665
   -12.9665 -12.3891 -12.3891 -12.0467 -12.0425 -12.0423 -11.9505 -11.9503
   -11.9479 -11.8941 -11.8912 -11.8909 -11.8729 -11.8729 -11.6859 -11.6859
   -11.5335 -11.5335 -11.3445 -11.3445 -11.2771 -11.1623 -11.1558 -10.9804
   -10.9804 -10.7638 -10.7506 -10.7506 -10.6622 -10.6622 -10.5944 -10.5892
   -10.5225 -10.2353 -10.2352 -10.1106 -10.1106 -10.0555 -10.0010 -10.0010
    -9.8174  -9.8174  -9.7535  -9.7511  -9.6478  -9.5948  -9.4949  -9.4949
    -9.4595  -9.3391  -9.3391  -9.1814  -9.1814  -9.1481  -9.1481  -9.1317
    -9.1317  -9.1018  -9.1018  -8.9380  -8.7553  -8.7422  -8.7421  -8.6262
    -8.6262  -8.5426  -8.5425  -8.4757  -8.4756  -8.2863  -7.9909  -7.9894
    -7.9558  -7.9556  -7.9524  -7.9524  -7.9242  -7.9239  -7.9124  -7.9121
    -7.9081  -7.8573  -7.7083  -7.7083  -7.6624  -7.6623  -7.3783  -7.3458
    -7.1899  -7.1898  -7.1588  -7.0227  -6.9681  -6.9681  -6.7572  -6.6798
    -6.6527  -6.6188  -6.6059  -6.4961  -6.4917  -6.3658  -6.3657  -6.1286
    -6.1286  -5.9712  -5.9709  -5.9309  -5.9306  -5.9180  -5.9177  -5.8834
    -5.8737  -5.8553  -5.7082  -5.7082  -0.9502  -0.7970  -0.7970  -0.7593
    -0.7356  -0.6264  -0.5094  -0.5094  -0.4511  -0.4511  -0.4185  -0.2784
    -0.2784  -0.2490  -0.2330  -0.0803  -0.0086  -0.0086   0.0584   0.0632
     0.2367   0.3328   0.3328   0.3996   0.3996   0.4675   0.5134   0.5134
     0.5611   0.6281   0.8142   0.8142   0.9056   0.9056   0.9248   1.1751
     1.1751   1.1776   1.2603   1.2603   1.2691   1.4735   1.5410   1.5502
     1.5502   1.5737   1.7444   1.7444   1.7637   1.7637   1.8682   1.8758
     1.8759   1.8826   1.8826   1.9646   1.9963   1.9963   2.0264   2.0264
     2.0466   2.0467   2.0901   2.1049   2.1528   2.1528   2.1672   2.1672
     2.2393   2.2393   2.3476   2.3856   2.5280   2.5280   2.6263   2.6316
     2.6665   2.6665   2.7533   2.7533   2.8165   2.9395   2.9395   2.9924
     2.9924   3.0132   3.0132   3.0290   3.0367   3.0367   3.2192   3.2192
     3.2222   3.2222   3.2317   3.2457   3.2681   3.2681   3.2975   3.2975
     3.3546   3.4126   3.5182   3.5182   3.5206   3.5439   3.6493   3.6497
     3.6762   3.6764   3.6766   3.7030   3.7031   3.7592   3.7592   3.7711
     3.8224

          k = 0.3333 0.0000 0.0000 (246625 PWs)   bands (ev):

   -24.1754 -24.1749 -24.1740 -24.1645 -24.1643 -24.1640 -24.1639 -24.1634
   -24.1633 -23.1985 -23.0656 -22.6741 -22.6741 -22.5469 -22.5461 -22.5461
   -22.1693 -22.0518 -22.0518 -21.6988 -21.6987 -21.2650 -21.2650 -21.2497
   -21.1557 -21.1556 -20.8828 -20.8827 -20.7527 -20.7526 -20.7513 -20.4936
   -20.4936 -20.4916 -20.4916 -20.1302 -20.0768 -20.0767 -20.0449 -20.0434
   -20.0433 -19.8931 -19.7690 -19.6519 -19.6320 -14.4295 -14.3232 -14.3231
   -14.3228 -14.1016 -14.1016 -13.9128 -13.8466 -13.8465 -13.6421 -13.5617
   -13.4989 -13.2271 -13.2270 -13.0803 -13.0803 -12.6347 -12.6338 -12.6337
   -12.4943 -12.4402 -12.4402 -12.4383 -12.4228 -12.4227 -12.0201 -12.0059
   -12.0058 -12.0046 -12.0045 -12.0042 -12.0041 -11.9256 -11.8757 -11.8682
   -11.8652 -11.7854 -11.5799 -11.5798 -10.9817 -10.9817 -10.8277 -10.8276
   -10.8270 -10.7855 -10.6906 -10.6905 -10.6623 -10.6623 -10.6075 -10.3784
   -10.3783 -10.3782 -10.1890 -10.1670 -10.0716 -10.0715  -9.9146  -9.9001
    -9.9001  -9.8907  -9.7836  -9.7835  -9.7465  -9.7465  -9.4395  -9.4394
    -9.3933  -9.3278  -9.3278  -9.2656  -9.2643  -9.2643  -9.2391  -9.2390
    -8.9593  -8.9592  -8.9060  -8.9059  -8.8300  -8.7485  -8.7484  -8.6845
    -8.6845  -8.2127  -8.2127  -8.2117  -8.2080  -8.1831  -8.1831  -8.0882
    -8.0881  -8.0079  -7.9367  -7.9281  -7.9280  -7.9264  -7.9263  -7.8793
    -7.8793  -7.8694  -7.8533  -7.8533  -7.6220  -7.5291  -7.5290  -7.3655
    -7.3647  -7.3647  -7.2589  -7.0955  -7.0029  -7.0029  -6.9940  -6.9909
    -6.9909  -6.4354  -6.3750  -6.3750  -6.3199  -6.3198  -6.3086  -6.1212
    -5.9918  -5.9543  -5.9443  -5.9441  -5.8975  -5.8974  -5.8822  -5.8815
    -5.8714  -5.8712  -5.6814  -5.6590  -1.0047  -0.8737  -0.8635  -0.7429
    -0.7429  -0.7395  -0.7393  -0.7362  -0.6715  -0.5502  -0.5502  -0.4242
    -0.0971  -0.0852  -0.0852  -0.0606   0.0330   0.0330   0.1014   0.1748
     0.1748   0.4291   0.4292   0.5988   0.6977   0.6977   0.7198   0.7966
     0.7966   0.8135   0.8135   0.8147   0.9169   0.9637   0.9638   0.9964
     0.9964   1.1523   1.1716   1.3671   1.3963   1.3963   1.4421   1.4422
     1.4986   1.4986   1.5321   1.5321   1.5489   1.6195   1.6754   1.6956
     1.6956   1.7712   1.8324   1.8767   1.8767   2.0330   2.0330   2.0613
     2.0613   2.0798   2.2479   2.2479   2.2540   2.2795   2.3260   2.3349
     2.4181   2.4181   2.4473   2.4473   2.5161   2.5161   2.5362   2.5664
     2.6413   2.6413   2.6533   2.6690   2.6690   2.8854   2.9344   2.9344
     2.9947   2.9947   3.0748   3.0748   3.0814   3.0814   3.1432   3.1626
     3.1626   3.1989   3.1989   3.2008   3.3063   3.3557   3.3557   3.3865
     3.3865   3.4007   3.4232   3.4377   3.5112   3.5112   3.5268   3.5268
     3.5380   3.6080   3.6422   3.6523   3.6523   3.6782   3.6783   3.7513
     3.8601

          k = 0.3333 0.3849 0.0000 (246711 PWs)   bands (ev):

   -24.1737 -24.1731 -24.1724 -24.1693 -24.1688 -24.1682 -24.1612 -24.1608
   -24.1603 -23.1393 -23.0069 -22.9630 -22.8323 -22.4907 -22.3240 -22.2815
   -22.1577 -22.1158 -21.9569 -21.8014 -21.6848 -21.6836 -21.3547 -21.2386
   -21.2069 -21.0820 -20.9394 -20.7318 -20.7198 -20.6307 -20.6289 -20.6260
   -20.3497 -20.3311 -20.3008 -20.2784 -20.2111 -20.1729 -20.0705 -19.9553
   -19.9115 -19.9079 -19.8504 -19.7527 -19.7028 -14.3607 -14.1927 -14.1600
   -14.0878 -14.0644 -14.0229 -13.9782 -13.7689 -13.7277 -13.7266 -13.6736
   -13.5761 -13.4420 -13.3884 -13.3757 -13.3754 -13.2467 -12.8863 -12.6938
   -12.6658 -12.2475 -12.1768 -12.1607 -12.1299 -12.0460 -12.0443 -12.0427
   -11.9857 -11.9483 -11.9475 -11.9467 -11.8950 -11.8921 -11.8894 -11.7178
   -11.6860 -11.6859 -11.4198 -11.3689 -11.3434 -11.3430 -11.2877 -11.0377
   -10.9770 -10.7044 -10.5761 -10.5272 -10.4640 -10.4401 -10.3111 -10.2889
   -10.2573 -10.1713 -10.1109 -10.1106 -10.1085 -10.0954 -10.0550  -9.9997
    -9.9614  -9.8736  -9.8380  -9.8263  -9.6471  -9.6357  -9.6172  -9.6097
    -9.5628  -9.5388  -9.5136  -9.4322  -9.3728  -9.3391  -9.3385  -9.3187
    -9.1012  -8.9192  -8.8846  -8.8003  -8.7434  -8.7355  -8.7270  -8.6843
    -8.4513  -8.4372  -8.2954  -8.2858  -8.1811  -8.1639  -8.1453  -8.0608
    -8.0248  -8.0011  -7.9629  -7.9326  -7.9239  -7.9141  -7.9088  -7.8781
    -7.8386  -7.8325  -7.7640  -7.6794  -7.6011  -7.4532  -7.3454  -7.3395
    -7.3370  -7.3217  -7.1903  -7.1890  -7.1851  -7.1118  -6.7830  -6.7509
    -6.7002  -6.6852  -6.5693  -6.5126  -6.3747  -6.1969  -6.1378  -6.1207
    -6.0475  -5.9887  -5.9582  -5.9569  -5.9338  -5.8921  -5.8870  -5.8805
    -5.8770  -5.8666  -5.8521  -5.7556  -0.8815  -0.8057  -0.7264  -0.6733
    -0.6721  -0.6644  -0.6402  -0.5194  -0.5023  -0.4933  -0.4225  -0.3981
    -0.3868  -0.3248  -0.2379  -0.1803   0.0078   0.0529   0.1223   0.1915
     0.2058   0.2713   0.3855   0.3919   0.4314   0.4719   0.5297   0.6319
     0.6943   0.7817   0.8143   0.8368   0.9134   0.9970   1.0451   1.0937
     1.1749   1.2334   1.2509   1.2556   1.3305   1.3685   1.4612   1.5040
     1.5042   1.5464   1.5548   1.6172   1.6440   1.6474   1.7076   1.7638
     1.7661   1.8349   1.8681   1.9032   1.9349   1.9419   1.9913   1.9953
     2.0449   2.1142   2.1552   2.1620   2.1752   2.3485   2.3518   2.3713
     2.3749   2.4180   2.4203   2.4547   2.5311   2.6263   2.6295   2.6356
     2.6409   2.6545   2.6990   2.7019   2.7487   2.8386   2.8748   2.9078
     2.9174   2.9717   3.0354   3.0414   3.0428   3.1024   3.1476   3.2063
     3.2277   3.2752   3.2997   3.3154   3.3976   3.4067   3.4575   3.4601
     3.4873   3.4874   3.5031   3.5053   3.5170   3.5532   3.5733   3.6081
     3.6113   3.6233   3.6260   3.6668   3.6693   3.6904   3.7278   3.7440
     3.7449

     highest occupied, lowest unoccupied level (ev):    -5.5630   -1.0724

!    total energy              =   -1831.40317292 Ry
     total all-electron energy =     -7114.398344 Ry
     estimated scf accuracy    <       0.00000033 Ry

     The total energy is the sum of the following terms:
     one-electron contribution =  -16687.34057564 Ry
     hartree contribution      =    8409.80520491 Ry
     xc contribution           =    -397.52302528 Ry
     ewald contribution        =    7404.43067043 Ry
     one-center paw contrib.   =    -560.77544734 Ry

     convergence has been achieved in  12 iterations

     Writing all to output data dir ./hBN_water_Oup_Hdown.save/

     init_run     :      8.95s CPU      9.28s WALL (       1 calls)
     electrons    :    337.73s CPU    341.42s WALL (       1 calls)

     Called by init_run:
     wfcinit      :      6.68s CPU      6.86s WALL (       1 calls)
     potinit      :      0.46s CPU      0.48s WALL (       1 calls)
     hinit0       :      0.74s CPU      0.84s WALL (       1 calls)

     Called by electrons:
     c_bands      :    310.76s CPU    313.98s WALL (      12 calls)
     sum_band     :     24.78s CPU     24.90s WALL (      12 calls)
     v_of_rho     :      0.56s CPU      0.60s WALL (      13 calls)
     newd         :      1.02s CPU      1.04s WALL (      13 calls)
     PAW_pot      :      0.48s CPU      0.49s WALL (      13 calls)
     mix_rho      :      0.17s CPU      0.18s WALL (      12 calls)

     Called by c_bands:
     init_us_2    :      1.99s CPU      2.00s WALL (     100 calls)
     init_us_2:cp :      1.99s CPU      1.99s WALL (     100 calls)
     cegterg      :    308.02s CPU    310.99s WALL (      48 calls)

     Called by *egterg:
     cdiaghg      :     31.49s CPU     32.47s WALL (     425 calls)
     h_psi        :    144.22s CPU    145.47s WALL (     429 calls)
     s_psi        :     25.57s CPU     25.65s WALL (     429 calls)
     g_psi        :      0.45s CPU      0.45s WALL (     377 calls)

     Called by h_psi:
     h_psi:calbec :     28.62s CPU     28.73s WALL (     429 calls)
     vloc_psi     :     87.31s CPU     87.72s WALL (     429 calls)
     add_vuspsi   :     27.14s CPU     27.29s WALL (     429 calls)

     General routines
     calbec       :     36.88s CPU     37.00s WALL (     477 calls)
     fft          :      0.42s CPU      0.54s WALL (     143 calls)
     ffts         :      0.03s CPU      0.03s WALL (      12 calls)
     fftw         :     95.50s CPU     95.93s WALL (  100328 calls)

     Parallel routines

     PWSCF        :   5m51.53s CPU   6m 0.72s WALL


   This run was terminated on:  23: 8:57  20Oct2022            

=------------------------------------------------------------------------------=
   JOB DONE.
=------------------------------------------------------------------------------=
