
     Program PWSCF v.7.1 starts on 20Oct2022 at 23:30:47 
        Git branch: HEAD
        Last git commit: 564a7b486665e8dd0223d6e514b84195d1a96c10
        Last git commit date: Tue Jun 14 16:16:48 2022 +0000
        Last git commit subject: Merge branch 'update_version_number' into 'develop

     This program is part of the open-source Quantum ESPRESSO suite
     for quantum simulation of materials; please cite
         "P. Giannozzi et al., J. Phys.:Condens. Matter 21 395502 (2009);
         "P. Giannozzi et al., J. Phys.:Condens. Matter 29 465901 (2017);
         "P. Giannozzi et al., J. Chem. Phys. 152 154105 (2020);
          URL http://www.quantum-espresso.org", 
     in publications or presentations arising from this work. More details at
     http://www.quantum-espresso.org/quote

     Parallel version (MPI & OpenMP), running on     128 processor cores
     Number of MPI processes:               128
     Threads/MPI process:                     1

     MPI processes distributed on     1 nodes
     943902 MiB available memory on the printing compute node when the environment starts

     Waiting for input...
     Reading input from standard input

     Current dimensions of program PWSCF are:
     Max number of different atomic species (ntypx) = 10
     Max number of k-points (npk) =  40000
     Max angular momentum in pseudopotentials (lmaxx) =  4
     file N.pbe-n-kjpaw_psl.1.0.0.UPF: wavefunction(s)  2S renormalized
     file O.pbe-n-kjpaw_psl.1.0.0.UPF: wavefunction(s)  2S 2P renormalized
     file H.pbe-kjpaw_psl.1.0.0.UPF: wavefunction(s)  1S renormalized
     Found identity + (  0.0000  0.2000  0.0000) symmetry
     This is a supercell, fractional translations are disabled
     Message from routine setup:
     using ibrav=0 with symmetry is DISCOURAGED, use correct ibrav instead

     R & G space division:  proc/nbgrp/npool/nimage =     128
     Subspace diagonalization in iterative solution of the eigenvalue problem:
     one sub-group per band group will be used
     scalapack distributed-memory algorithm (size of sub-group:  8*  8 procs)


     Parallelization info
     --------------------
     sticks:   dense  smooth     PW     G-vecs:    dense   smooth      PW
     Min         248     248     63                42832    42832    5505
     Max         249     249     64                42838    42838    5511
     Sum       31775   31775   8099              5482857  5482857  705021

     Using Slab Decomposition



     bravais-lattice index     =            0
     lattice parameter (alat)  =      47.3290  a.u.
     unit-cell volume          =  109978.1088 (a.u.)^3
     number of atoms/cell      =          275
     number of atomic types    =            4
     number of electrons       =      1000.00
     number of Kohn-Sham states=          825
     kinetic-energy cutoff     =      51.4490  Ry
     charge density cutoff     =     205.7961  Ry
     scf convergence threshold =      1.0E-06
     mixing beta               =       0.7000
     number of iterations used =            8  plain     mixing
     Exchange-correlation= SLA  PW   PBX  PBC
                           (   1   4   3   4   0   0   0)

     celldm(1)=  47.329041  celldm(2)=   0.000000  celldm(3)=   0.000000
     celldm(4)=   0.000000  celldm(5)=   0.000000  celldm(6)=   0.000000

     crystal axes: (cart. coord. in units of alat)
               a(1) = (   1.000000   0.000000   0.000000 )  
               a(2) = (   0.000000   0.866026   0.000000 )  
               a(3) = (   0.000000   0.000000   1.197822 )  

     reciprocal axes: (cart. coord. in units 2 pi/alat)
               b(1) = (  1.000000  0.000000  0.000000 )  
               b(2) = (  0.000000  1.154700  0.000000 )  
               b(3) = (  0.000000  0.000000  0.834848 )  


     PseudoPot. # 1 for B  read from file:
     ./B.pbe-n-kjpaw_psl.1.0.0.UPF
     MD5 check sum: 8c825a5969375aca5c2c6ad5945b3059
     Pseudo is Projector augmented-wave + core cor, Zval =  3.0
     Generated using &quot;atomic&quot; code by A. Dal Corso  v.6.3
     Shape of augmentation charge: PSQ
     Using radial grid of 1059 points,  4 beta functions with: 
                l(1) =   0
                l(2) =   0
                l(3) =   1
                l(4) =   1
     Q(r) pseudized with 0 coefficients 


     PseudoPot. # 2 for N  read from file:
     ./N.pbe-n-kjpaw_psl.1.0.0.UPF
     MD5 check sum: 14c48229446f9f2d411169a3abcbc3fa
     Pseudo is Projector augmented-wave + core cor, Zval =  5.0
     Generated using &quot;atomic&quot; code by A. Dal Corso  v.6.3
     Shape of augmentation charge: PSQ
     Using radial grid of 1085 points,  4 beta functions with: 
                l(1) =   0
                l(2) =   0
                l(3) =   1
                l(4) =   1
     Q(r) pseudized with 0 coefficients 


     PseudoPot. # 3 for O  read from file:
     ./O.pbe-n-kjpaw_psl.1.0.0.UPF
     MD5 check sum: e99d9cef9b487d1ca56f5b95ecd0fd7a
     Pseudo is Projector augmented-wave + core cor, Zval =  6.0
     Generated using &quot;atomic&quot; code by A. Dal Corso  v.6.3
     Shape of augmentation charge: PSQ
     Using radial grid of 1095 points,  4 beta functions with: 
                l(1) =   0
                l(2) =   0
                l(3) =   1
                l(4) =   1
     Q(r) pseudized with 0 coefficients 


     PseudoPot. # 4 for H  read from file:
     ./H.pbe-kjpaw_psl.1.0.0.UPF
     MD5 check sum: d81a744832360e4a8af0b0b5b123bc2a
     Pseudo is Projector augmented-wave, Zval =  1.0
     Generated using &quot;atomic&quot; code by A. Dal Corso  v.6.3MaX
     Shape of augmentation charge: PSQ
     Using radial grid of  929 points,  2 beta functions with: 
                l(1) =   0
                l(2) =   0
     Q(r) pseudized with 0 coefficients 


     atomic species   valence    mass     pseudopotential
        B              3.00    10.81100     B ( 1.00)
        N              5.00    14.00670     N ( 1.00)
        O              6.00    15.99900     O ( 1.00)
        H              1.00     1.00784     H ( 1.00)

      2 Sym. Ops. (no inversion) found



   Cartesian axes

     site n.     atom                  positions (alat units)
         1           B   tau(   1) = (   0.9500000   0.0288672   0.2395645  )
         2           B   tau(   2) = (   0.9500000   0.2020723   0.2395645  )
         3           B   tau(   3) = (   0.9500000   0.3752775   0.2395645  )
         4           B   tau(   4) = (   0.9500000   0.5484826   0.2395645  )
         5           B   tau(   5) = (   0.9500000   0.7216877   0.2395645  )
         6           B   tau(   6) = (   0.1500000   0.0288672   0.2395645  )
         7           B   tau(   7) = (   0.1500000   0.2020723   0.2395645  )
         8           B   tau(   8) = (   0.1500000   0.3752775   0.2395645  )
         9           B   tau(   9) = (   0.1500000   0.5484826   0.2395645  )
        10           B   tau(  10) = (   0.1500000   0.7216877   0.2395645  )
        11           B   tau(  11) = (   0.3500000   0.0288672   0.2395645  )
        12           B   tau(  12) = (   0.3500000   0.2020723   0.2395645  )
        13           B   tau(  13) = (   0.3500000   0.3752775   0.2395645  )
        14           B   tau(  14) = (   0.3500000   0.5484826   0.2395645  )
        15           B   tau(  15) = (   0.3500000   0.7216877   0.2395645  )
        16           B   tau(  16) = (   0.5500000   0.0288672   0.2395645  )
        17           B   tau(  17) = (   0.5500000   0.2020723   0.2395645  )
        18           B   tau(  18) = (   0.5500000   0.3752775   0.2395645  )
        19           B   tau(  19) = (   0.5500000   0.5484826   0.2395645  )
        20           B   tau(  20) = (   0.5500000   0.7216877   0.2395645  )
        21           B   tau(  21) = (   0.7500000   0.0288672   0.2395645  )
        22           B   tau(  22) = (   0.7500000   0.2020723   0.2395645  )
        23           B   tau(  23) = (   0.7500000   0.3752775   0.2395645  )
        24           B   tau(  24) = (   0.7500000   0.5484826   0.2395645  )
        25           B   tau(  25) = (   0.7500000   0.7216877   0.2395645  )
        26           B   tau(  26) = (   0.0500000   0.0288672   0.2395645  )
        27           B   tau(  27) = (   0.0500000   0.2020723   0.2395645  )
        28           B   tau(  28) = (   0.0500000   0.3752775   0.2395645  )
        29           B   tau(  29) = (   0.0500000   0.5484826   0.2395645  )
        30           B   tau(  30) = (   0.0500000   0.7216877   0.2395645  )
        31           B   tau(  31) = (   0.2500000   0.0288672   0.2395645  )
        32           B   tau(  32) = (   0.2500000   0.2020723   0.2395645  )
        33           B   tau(  33) = (   0.2500000   0.3752775   0.2395645  )
        34           B   tau(  34) = (   0.2500000   0.5484826   0.2395645  )
        35           B   tau(  35) = (   0.2500000   0.7216877   0.2395645  )
        36           B   tau(  36) = (   0.4500000   0.0288672   0.2395645  )
        37           B   tau(  37) = (   0.4500000   0.2020723   0.2395645  )
        38           B   tau(  38) = (   0.4500000   0.3752775   0.2395645  )
        39           B   tau(  39) = (   0.4500000   0.5484826   0.2395645  )
        40           B   tau(  40) = (   0.4500000   0.7216877   0.2395645  )
        41           B   tau(  41) = (   0.6500000   0.0288672   0.2395645  )
        42           B   tau(  42) = (   0.6500000   0.2020723   0.2395645  )
        43           B   tau(  43) = (   0.6500000   0.3752775   0.2395645  )
        44           B   tau(  44) = (   0.6500000   0.5484826   0.2395645  )
        45           B   tau(  45) = (   0.6500000   0.7216877   0.2395645  )
        46           B   tau(  46) = (   0.8500000   0.0288672   0.2395645  )
        47           B   tau(  47) = (   0.8500000   0.2020723   0.2395645  )
        48           B   tau(  48) = (   0.8500000   0.3752775   0.2395645  )
        49           B   tau(  49) = (   0.8500000   0.5484826   0.2395645  )
        50           B   tau(  50) = (   0.8500000   0.7216877   0.2395645  )
        51           B   tau(  51) = (   0.0000000   0.8082902   0.2395645  )
        52           B   tau(  52) = (   0.0000000   0.1154698   0.2395645  )
        53           B   tau(  53) = (   0.0000000   0.2886749   0.2395645  )
        54           B   tau(  54) = (   0.0000000   0.4618800   0.2395645  )
        55           B   tau(  55) = (   0.0000000   0.6350851   0.2395645  )
        56           B   tau(  56) = (   0.2000000   0.8082902   0.2395645  )
        57           B   tau(  57) = (   0.2000000   0.1154698   0.2395645  )
        58           B   tau(  58) = (   0.2000000   0.2886749   0.2395645  )
        59           B   tau(  59) = (   0.2000000   0.4618800   0.2395645  )
        60           B   tau(  60) = (   0.2000000   0.6350851   0.2395645  )
        61           B   tau(  61) = (   0.4000000   0.8082902   0.2395645  )
        62           B   tau(  62) = (   0.4000000   0.1154698   0.2395645  )
        63           B   tau(  63) = (   0.4000000   0.2886749   0.2395645  )
        64           B   tau(  64) = (   0.4000000   0.4618800   0.2395645  )
        65           B   tau(  65) = (   0.4000000   0.6350851   0.2395645  )
        66           B   tau(  66) = (   0.6000000   0.8082902   0.2395645  )
        67           B   tau(  67) = (   0.6000000   0.1154698   0.2395645  )
        68           B   tau(  68) = (   0.6000000   0.2886749   0.2395645  )
        69           B   tau(  69) = (   0.6000000   0.4618800   0.2395645  )
        70           B   tau(  70) = (   0.6000000   0.6350851   0.2395645  )
        71           B   tau(  71) = (   0.8000000   0.8082902   0.2395645  )
        72           B   tau(  72) = (   0.8000000   0.1154698   0.2395645  )
        73           B   tau(  73) = (   0.8000000   0.2886749   0.2395645  )
        74           B   tau(  74) = (   0.8000000   0.4618800   0.2395645  )
        75           B   tau(  75) = (   0.8000000   0.6350851   0.2395645  )
        76           B   tau(  76) = (   0.1000000   0.8082902   0.2395645  )
        77           B   tau(  77) = (   0.1000000   0.1154698   0.2395645  )
        78           B   tau(  78) = (   0.1000000   0.2886749   0.2395645  )
        79           B   tau(  79) = (   0.1000000   0.4618800   0.2395645  )
        80           B   tau(  80) = (   0.1000000   0.6350851   0.2395645  )
        81           B   tau(  81) = (   0.3000000   0.8082902   0.2395645  )
        82           B   tau(  82) = (   0.3000000   0.1154698   0.2395645  )
        83           B   tau(  83) = (   0.3000000   0.2886749   0.2395645  )
        84           B   tau(  84) = (   0.3000000   0.4618800   0.2395645  )
        85           B   tau(  85) = (   0.3000000   0.6350851   0.2395645  )
        86           B   tau(  86) = (   0.5000000   0.8082902   0.2395645  )
        87           B   tau(  87) = (   0.5000000   0.1154698   0.2395645  )
        88           B   tau(  88) = (   0.5000000   0.2886749   0.2395645  )
        89           B   tau(  89) = (   0.5000000   0.4618800   0.2395645  )
        90           B   tau(  90) = (   0.5000000   0.6350851   0.2395645  )
        91           B   tau(  91) = (   0.7000000   0.8082902   0.2395645  )
        92           B   tau(  92) = (   0.7000000   0.1154698   0.2395645  )
        93           B   tau(  93) = (   0.7000000   0.2886749   0.2395645  )
        94           B   tau(  94) = (   0.7000000   0.4618800   0.2395645  )
        95           B   tau(  95) = (   0.7000000   0.6350851   0.2395645  )
        96           B   tau(  96) = (   0.9000000   0.8082902   0.2395645  )
        97           B   tau(  97) = (   0.9000000   0.1154698   0.2395645  )
        98           B   tau(  98) = (   0.9000000   0.2886749   0.2395645  )
        99           B   tau(  99) = (   0.9000000   0.4618800   0.2395645  )
       100           B   tau( 100) = (   0.9000000   0.6350851   0.2395645  )
       101           N   tau( 101) = (   0.9500000   0.8371583   0.2395645  )
       102           N   tau( 102) = (   0.9500000   0.1443379   0.2395645  )
       103           N   tau( 103) = (   0.9500000   0.3175430   0.2395645  )
       104           N   tau( 104) = (   0.9500000   0.4907481   0.2395645  )
       105           N   tau( 105) = (   0.9500000   0.6639532   0.2395645  )
       106           N   tau( 106) = (   0.1500000   0.8371583   0.2395645  )
       107           N   tau( 107) = (   0.1500000   0.1443379   0.2395645  )
       108           N   tau( 108) = (   0.1500000   0.3175430   0.2395645  )
       109           N   tau( 109) = (   0.1500000   0.4907481   0.2395645  )
       110           N   tau( 110) = (   0.1500000   0.6639532   0.2395645  )
       111           N   tau( 111) = (   0.3500000   0.8371583   0.2395645  )
       112           N   tau( 112) = (   0.3500000   0.1443379   0.2395645  )
       113           N   tau( 113) = (   0.3500000   0.3175430   0.2395645  )
       114           N   tau( 114) = (   0.3500000   0.4907481   0.2395645  )
       115           N   tau( 115) = (   0.3500000   0.6639532   0.2395645  )
       116           N   tau( 116) = (   0.5500000   0.8371583   0.2395645  )
       117           N   tau( 117) = (   0.5500000   0.1443379   0.2395645  )
       118           N   tau( 118) = (   0.5500000   0.3175430   0.2395645  )
       119           N   tau( 119) = (   0.5500000   0.4907481   0.2395645  )
       120           N   tau( 120) = (   0.5500000   0.6639532   0.2395645  )
       121           N   tau( 121) = (   0.7500000   0.8371583   0.2395645  )
       122           N   tau( 122) = (   0.7500000   0.1443379   0.2395645  )
       123           N   tau( 123) = (   0.7500000   0.3175430   0.2395645  )
       124           N   tau( 124) = (   0.7500000   0.4907481   0.2395645  )
       125           N   tau( 125) = (   0.7500000   0.6639532   0.2395645  )
       126           N   tau( 126) = (   0.0500000   0.8371583   0.2395645  )
       127           N   tau( 127) = (   0.0500000   0.1443379   0.2395645  )
       128           N   tau( 128) = (   0.0500000   0.3175430   0.2395645  )
       129           N   tau( 129) = (   0.0500000   0.4907481   0.2395645  )
       130           N   tau( 130) = (   0.0500000   0.6639532   0.2395645  )
       131           N   tau( 131) = (   0.2500000   0.8371583   0.2395645  )
       132           N   tau( 132) = (   0.2500000   0.1443379   0.2395645  )
       133           N   tau( 133) = (   0.2500000   0.3175430   0.2395645  )
       134           N   tau( 134) = (   0.2500000   0.4907481   0.2395645  )
       135           N   tau( 135) = (   0.2500000   0.6639532   0.2395645  )
       136           N   tau( 136) = (   0.4500000   0.8371583   0.2395645  )
       137           N   tau( 137) = (   0.4500000   0.1443379   0.2395645  )
       138           N   tau( 138) = (   0.4500000   0.3175430   0.2395645  )
       139           N   tau( 139) = (   0.4500000   0.4907481   0.2395645  )
       140           N   tau( 140) = (   0.4500000   0.6639532   0.2395645  )
       141           N   tau( 141) = (   0.6500000   0.8371583   0.2395645  )
       142           N   tau( 142) = (   0.6500000   0.1443379   0.2395645  )
       143           N   tau( 143) = (   0.6500000   0.3175430   0.2395645  )
       144           N   tau( 144) = (   0.6500000   0.4907481   0.2395645  )
       145           N   tau( 145) = (   0.6500000   0.6639532   0.2395645  )
       146           N   tau( 146) = (   0.8500000   0.8371583   0.2395645  )
       147           N   tau( 147) = (   0.8500000   0.1443379   0.2395645  )
       148           N   tau( 148) = (   0.8500000   0.3175430   0.2395645  )
       149           N   tau( 149) = (   0.8500000   0.4907481   0.2395645  )
       150           N   tau( 150) = (   0.8500000   0.6639532   0.2395645  )
       151           N   tau( 151) = (   0.0000000   0.0577353   0.2395645  )
       152           N   tau( 152) = (   0.0000000   0.2309404   0.2395645  )
       153           N   tau( 153) = (   0.0000000   0.4041456   0.2395645  )
       154           N   tau( 154) = (   0.0000000   0.5773507   0.2395645  )
       155           N   tau( 155) = (   0.0000000   0.7505558   0.2395645  )
       156           N   tau( 156) = (   0.2000000   0.0577353   0.2395645  )
       157           N   tau( 157) = (   0.2000000   0.2309404   0.2395645  )
       158           N   tau( 158) = (   0.2000000   0.4041456   0.2395645  )
       159           N   tau( 159) = (   0.2000000   0.5773507   0.2395645  )
       160           N   tau( 160) = (   0.2000000   0.7505558   0.2395645  )
       161           N   tau( 161) = (   0.4000000   0.0577353   0.2395645  )
       162           N   tau( 162) = (   0.4000000   0.2309404   0.2395645  )
       163           N   tau( 163) = (   0.4000000   0.4041456   0.2395645  )
       164           N   tau( 164) = (   0.4000000   0.5773507   0.2395645  )
       165           N   tau( 165) = (   0.4000000   0.7505558   0.2395645  )
       166           N   tau( 166) = (   0.6000000   0.0577353   0.2395645  )
       167           N   tau( 167) = (   0.6000000   0.2309404   0.2395645  )
       168           N   tau( 168) = (   0.6000000   0.4041456   0.2395645  )
       169           N   tau( 169) = (   0.6000000   0.5773507   0.2395645  )
       170           N   tau( 170) = (   0.6000000   0.7505558   0.2395645  )
       171           N   tau( 171) = (   0.8000000   0.0577353   0.2395645  )
       172           N   tau( 172) = (   0.8000000   0.2309404   0.2395645  )
       173           N   tau( 173) = (   0.8000000   0.4041456   0.2395645  )
       174           N   tau( 174) = (   0.8000000   0.5773507   0.2395645  )
       175           N   tau( 175) = (   0.8000000   0.7505558   0.2395645  )
       176           N   tau( 176) = (   0.1000000   0.0577353   0.2395645  )
       177           N   tau( 177) = (   0.1000000   0.2309404   0.2395645  )
       178           N   tau( 178) = (   0.1000000   0.4041456   0.2395645  )
       179           N   tau( 179) = (   0.1000000   0.5773507   0.2395645  )
       180           N   tau( 180) = (   0.1000000   0.7505558   0.2395645  )
       181           N   tau( 181) = (   0.3000000   0.0577353   0.2395645  )
       182           N   tau( 182) = (   0.3000000   0.2309404   0.2395645  )
       183           N   tau( 183) = (   0.3000000   0.4041456   0.2395645  )
       184           N   tau( 184) = (   0.3000000   0.5773507   0.2395645  )
       185           N   tau( 185) = (   0.3000000   0.7505558   0.2395645  )
       186           N   tau( 186) = (   0.5000000   0.0577353   0.2395645  )
       187           N   tau( 187) = (   0.5000000   0.2309404   0.2395645  )
       188           N   tau( 188) = (   0.5000000   0.4041456   0.2395645  )
       189           N   tau( 189) = (   0.5000000   0.5773507   0.2395645  )
       190           N   tau( 190) = (   0.5000000   0.7505558   0.2395645  )
       191           N   tau( 191) = (   0.7000000   0.0577353   0.2395645  )
       192           N   tau( 192) = (   0.7000000   0.2309404   0.2395645  )
       193           N   tau( 193) = (   0.7000000   0.4041456   0.2395645  )
       194           N   tau( 194) = (   0.7000000   0.5773507   0.2395645  )
       195           N   tau( 195) = (   0.7000000   0.7505558   0.2395645  )
       196           N   tau( 196) = (   0.9000000   0.0577353   0.2395645  )
       197           N   tau( 197) = (   0.9000000   0.2309404   0.2395645  )
       198           N   tau( 198) = (   0.9000000   0.4041456   0.2395645  )
       199           N   tau( 199) = (   0.9000000   0.5773507   0.2395645  )
       200           N   tau( 200) = (   0.9000000   0.7505558   0.2395645  )
       201           O   tau( 201) = (   0.0000000   0.0000000   0.3753173  )
       202           O   tau( 202) = (   0.0000000   0.1732051   0.3753173  )
       203           O   tau( 203) = (   0.0000000   0.3464102   0.3753173  )
       204           O   tau( 204) = (   0.0000000   0.5196153   0.3753173  )
       205           O   tau( 205) = (   0.0000000   0.6928205   0.3753173  )
       206           O   tau( 206) = (   0.2000000   0.0000000   0.3753173  )
       207           O   tau( 207) = (   0.2000000   0.1732051   0.3753173  )
       208           O   tau( 208) = (   0.2000000   0.3464102   0.3753173  )
       209           O   tau( 209) = (   0.2000000   0.5196153   0.3753173  )
       210           O   tau( 210) = (   0.2000000   0.6928205   0.3753173  )
       211           O   tau( 211) = (   0.4000000   0.0000000   0.3753173  )
       212           O   tau( 212) = (   0.4000000   0.1732051   0.3753173  )
       213           O   tau( 213) = (   0.4000000   0.3464102   0.3753173  )
       214           O   tau( 214) = (   0.4000000   0.5196153   0.3753173  )
       215           O   tau( 215) = (   0.4000000   0.6928205   0.3753173  )
       216           O   tau( 216) = (   0.6000000   0.0000000   0.3753173  )
       217           O   tau( 217) = (   0.6000000   0.1732051   0.3753173  )
       218           O   tau( 218) = (   0.6000000   0.3464102   0.3753173  )
       219           O   tau( 219) = (   0.6000000   0.5196153   0.3753173  )
       220           O   tau( 220) = (   0.6000000   0.6928205   0.3753173  )
       221           O   tau( 221) = (   0.8000000   0.0000000   0.3753173  )
       222           O   tau( 222) = (   0.8000000   0.1732051   0.3753173  )
       223           O   tau( 223) = (   0.8000000   0.3464102   0.3753173  )
       224           O   tau( 224) = (   0.8000000   0.5196153   0.3753173  )
       225           O   tau( 225) = (   0.8000000   0.6928205   0.3753173  )
       226           H   tau( 226) = (   0.0000000   0.0302234   0.3519250  )
       227           H   tau( 227) = (   0.0000000   0.2034285   0.3519250  )
       228           H   tau( 228) = (   0.0000000   0.3766337   0.3519250  )
       229           H   tau( 229) = (   0.0000000   0.5498388   0.3519250  )
       230           H   tau( 230) = (   0.0000000   0.7230439   0.3519250  )
       231           H   tau( 231) = (   0.2000000   0.0302234   0.3519250  )
       232           H   tau( 232) = (   0.2000000   0.2034285   0.3519250  )
       233           H   tau( 233) = (   0.2000000   0.3766337   0.3519250  )
       234           H   tau( 234) = (   0.2000000   0.5498388   0.3519250  )
       235           H   tau( 235) = (   0.2000000   0.7230439   0.3519250  )
       236           H   tau( 236) = (   0.4000000   0.0302234   0.3519250  )
       237           H   tau( 237) = (   0.4000000   0.2034285   0.3519250  )
       238           H   tau( 238) = (   0.4000000   0.3766337   0.3519250  )
       239           H   tau( 239) = (   0.4000000   0.5498388   0.3519250  )
       240           H   tau( 240) = (   0.4000000   0.7230439   0.3519250  )
       241           H   tau( 241) = (   0.6000000   0.0302234   0.3519250  )
       242           H   tau( 242) = (   0.6000000   0.2034285   0.3519250  )
       243           H   tau( 243) = (   0.6000000   0.3766337   0.3519250  )
       244           H   tau( 244) = (   0.6000000   0.5498388   0.3519250  )
       245           H   tau( 245) = (   0.6000000   0.7230439   0.3519250  )
       246           H   tau( 246) = (   0.8000000   0.0302234   0.3519250  )
       247           H   tau( 247) = (   0.8000000   0.2034285   0.3519250  )
       248           H   tau( 248) = (   0.8000000   0.3766337   0.3519250  )
       249           H   tau( 249) = (   0.8000000   0.5498388   0.3519250  )
       250           H   tau( 250) = (   0.8000000   0.7230439   0.3519250  )
       251           H   tau( 251) = (   0.0000000   0.8358021   0.3519250  )
       252           H   tau( 252) = (   0.0000000   0.1429817   0.3519250  )
       253           H   tau( 253) = (   0.0000000   0.3161868   0.3519250  )
       254           H   tau( 254) = (   0.0000000   0.4893919   0.3519250  )
       255           H   tau( 255) = (   0.0000000   0.6625970   0.3519250  )
       256           H   tau( 256) = (   0.2000000   0.8358021   0.3519250  )
       257           H   tau( 257) = (   0.2000000   0.1429817   0.3519250  )
       258           H   tau( 258) = (   0.2000000   0.3161868   0.3519250  )
       259           H   tau( 259) = (   0.2000000   0.4893919   0.3519250  )
       260           H   tau( 260) = (   0.2000000   0.6625970   0.3519250  )
       261           H   tau( 261) = (   0.4000000   0.8358021   0.3519250  )
       262           H   tau( 262) = (   0.4000000   0.1429817   0.3519250  )
       263           H   tau( 263) = (   0.4000000   0.3161868   0.3519250  )
       264           H   tau( 264) = (   0.4000000   0.4893919   0.3519250  )
       265           H   tau( 265) = (   0.4000000   0.6625970   0.3519250  )
       266           H   tau( 266) = (   0.6000000   0.8358021   0.3519250  )
       267           H   tau( 267) = (   0.6000000   0.1429817   0.3519250  )
       268           H   tau( 268) = (   0.6000000   0.3161868   0.3519250  )
       269           H   tau( 269) = (   0.6000000   0.4893919   0.3519250  )
       270           H   tau( 270) = (   0.6000000   0.6625970   0.3519250  )
       271           H   tau( 271) = (   0.8000000   0.8358021   0.3519250  )
       272           H   tau( 272) = (   0.8000000   0.1429817   0.3519250  )
       273           H   tau( 273) = (   0.8000000   0.3161868   0.3519250  )
       274           H   tau( 274) = (   0.8000000   0.4893919   0.3519250  )
       275           H   tau( 275) = (   0.8000000   0.6625970   0.3519250  )

     number of k points=     4
                       cart. coord. in units 2pi/alat
        k(    1) = (   0.0000000   0.0000000   0.0000000), wk =   0.2222222
        k(    2) = (   0.0000000   0.3849001   0.0000000), wk =   0.4444444
        k(    3) = (   0.3333333   0.0000000   0.0000000), wk =   0.4444444
        k(    4) = (   0.3333333   0.3849001   0.0000000), wk =   0.8888889

     Dense  grid:  5482857 G-vectors     FFT dimensions: ( 225, 192, 270)

     Estimated max dynamical RAM per process >     954.42 MB

     Estimated total dynamical RAM >     119.30 GB

     Check: negative core charge=   -0.000008

     Initial potential from superposition of free atoms

     starting charge     999.9705, renormalised to    1000.0000

     negative rho (up, down):  1.171E-01 0.000E+00
     Starting wfcs are  950 randomized atomic wfcs
     Checking if some PAW data can be deallocated... 

     total cpu time spent up to now is       91.8 secs

     per-process dynamical memory:   708.7 Mb

     Self-consistent Calculation

     iteration #  1     ecut=    51.45 Ry     beta= 0.70
     Davidson diagonalization with overlap
     ethr =  1.00E-02,  avg # of iterations =  9.8

     negative rho (up, down):  2.214E-01 0.000E+00

     total cpu time spent up to now is      605.6 secs

     total energy              =   -5068.70019679 Ry
     estimated scf accuracy    <      51.61899698 Ry

     iteration #  2     ecut=    51.45 Ry     beta= 0.70
     Davidson diagonalization with overlap
     ethr =  5.16E-03,  avg # of iterations =  4.8

     negative rho (up, down):  2.223E-01 0.000E+00

     total cpu time spent up to now is      939.4 secs

     total energy              =   -5080.57957786 Ry
     estimated scf accuracy    <      30.87702765 Ry

     iteration #  3     ecut=    51.45 Ry     beta= 0.70
     Davidson diagonalization with overlap
     ethr =  3.09E-03,  avg # of iterations =  2.8

     negative rho (up, down):  2.627E-01 0.000E+00

     total cpu time spent up to now is     1188.6 secs

     total energy              =   -5086.08380715 Ry
     estimated scf accuracy    <       0.55411901 Ry

     iteration #  4     ecut=    51.45 Ry     beta= 0.70
     Davidson diagonalization with overlap
     ethr =  5.54E-05,  avg # of iterations = 22.0

     negative rho (up, down):  2.666E-01 0.000E+00

     total cpu time spent up to now is     2170.3 secs

     total energy              =   -5087.26899696 Ry
     estimated scf accuracy    <       2.60978444 Ry

     iteration #  5     ecut=    51.45 Ry     beta= 0.70
     Davidson diagonalization with overlap
     ethr =  5.54E-05,  avg # of iterations =  5.0

     negative rho (up, down):  2.778E-01 0.000E+00

     total cpu time spent up to now is     2441.4 secs

     total energy              =   -5087.10154250 Ry
     estimated scf accuracy    <       0.64931550 Ry

     iteration #  6     ecut=    51.45 Ry     beta= 0.70
     Davidson diagonalization with overlap
     ethr =  5.54E-05,  avg # of iterations =  5.2

     negative rho (up, down):  2.844E-01 0.000E+00

     total cpu time spent up to now is     2712.0 secs

     total energy              =   -5087.22910258 Ry
     estimated scf accuracy    <       0.00283490 Ry

     iteration #  7     ecut=    51.45 Ry     beta= 0.70
     Davidson diagonalization with overlap
     c_bands:  1 eigenvalues not converged
     ethr =  2.83E-07,  avg # of iterations = 18.5

     negative rho (up, down):  2.840E-01 0.000E+00

     total cpu time spent up to now is     3206.5 secs

     total energy              =   -5087.22981758 Ry
     estimated scf accuracy    <       0.00223887 Ry

     iteration #  8     ecut=    51.45 Ry     beta= 0.70
     Davidson diagonalization with overlap
     ethr =  2.24E-07,  avg # of iterations =  2.0

     negative rho (up, down):  2.836E-01 0.000E+00

     total cpu time spent up to now is     3439.7 secs

     total energy              =   -5087.22975199 Ry
     estimated scf accuracy    <       0.00053306 Ry

     iteration #  9     ecut=    51.45 Ry     beta= 0.70
     Davidson diagonalization with overlap
     ethr =  5.33E-08,  avg # of iterations =  5.0

     negative rho (up, down):  2.835E-01 0.000E+00

     total cpu time spent up to now is     3714.4 secs

     total energy              =   -5087.22995056 Ry
     estimated scf accuracy    <       0.00004659 Ry

     iteration # 10     ecut=    51.45 Ry     beta= 0.70
     Davidson diagonalization with overlap
     ethr =  4.66E-09,  avg # of iterations =  3.2

     negative rho (up, down):  2.835E-01 0.000E+00

     total cpu time spent up to now is     3971.4 secs

     total energy              =   -5087.22995369 Ry
     estimated scf accuracy    <       0.00001276 Ry

     iteration # 11     ecut=    51.45 Ry     beta= 0.70
     Davidson diagonalization with overlap
     ethr =  1.28E-09,  avg # of iterations =  5.0

     negative rho (up, down):  2.835E-01 0.000E+00

     total cpu time spent up to now is     4250.1 secs

     End of self-consistent calculation

          k = 0.0000 0.0000 0.0000 (685333 PWs)   bands (ev):

   -24.1758 -24.1752 -24.1751 -24.1745 -24.1743 -24.1707 -24.1705 -24.1704
   -24.1702 -24.1701 -24.1700 -24.1696 -24.1694 -24.1694 -24.1692 -24.1625
   -24.1623 -24.1623 -24.1621 -24.1619 -24.1619 -24.1617 -24.1615 -24.1614
   -24.1612 -23.2432 -23.0994 -23.0994 -23.0519 -23.0515 -22.9098 -22.9098
   -22.9094 -22.9094 -22.6763 -22.6763 -22.4931 -22.4931 -22.4928 -22.4928
   -22.4926 -22.4926 -22.3563 -22.3563 -22.3563 -22.3563 -22.0016 -22.0016
   -21.9610 -21.9610 -21.9609 -21.9609 -21.8340 -21.8340 -21.8336 -21.8336
   -21.6303 -21.6303 -21.5054 -21.5054 -21.5054 -21.5054 -21.3542 -21.3542
   -21.3542 -21.3542 -21.1504 -21.1504 -21.1503 -21.1503 -21.1503 -21.1503
   -21.0201 -21.0201 -21.0197 -21.0197 -20.6654 -20.6652 -20.6633 -20.6633
   -20.6633 -20.6633 -20.6466 -20.6466 -20.6466 -20.6466 -20.5570 -20.5570
   -20.5568 -20.5568 -20.2899 -20.2743 -20.2704 -20.2704 -20.2703 -20.2703
   -20.2442 -20.2438 -20.2340 -20.2336 -20.2018 -20.2018 -20.2018 -20.2018
   -20.1764 -20.1764 -20.1649 -20.1649 -20.1550 -20.0661 -20.0661 -19.9288
   -19.9288 -19.9286 -19.9286 -19.8281 -19.8281 -19.8259 -19.8259 -19.8256
   -19.8256 -19.6872 -19.6872 -19.5979 -19.5979 -14.4657 -14.3821 -14.3821
   -14.3788 -14.3788 -14.3502 -14.3502 -14.1369 -14.1369 -14.1369 -14.1369
   -14.0134 -14.0134 -14.0133 -14.0133 -14.0128 -14.0128 -13.7770 -13.7763
   -13.7734 -13.7728 -13.6389 -13.6389 -13.6389 -13.6389 -13.6386 -13.6378
   -13.5681 -13.5681 -13.5584 -13.5584 -13.5576 -13.5576 -13.5508 -13.5508
   -13.5346 -13.5346 -13.5342 -13.5342 -13.3811 -13.3811 -13.3804 -13.3804
   -13.1828 -13.1754 -13.1101 -13.1101 -13.1101 -13.1101 -12.7348 -12.7348
   -12.7343 -12.7343 -12.6224 -12.6224 -12.4102 -12.4102 -12.2765 -12.2765
   -12.2765 -12.2765 -12.0780 -12.0780 -12.0780 -12.0780 -12.0756 -12.0756
   -12.0372 -12.0369 -12.0352 -12.0350 -12.0349 -12.0348 -12.0245 -12.0244
   -12.0243 -12.0242 -11.9457 -11.9456 -11.9455 -11.9454 -11.9360 -11.9358
   -11.9353 -11.9352 -11.9351 -11.9351 -11.8778 -11.8778 -11.8770 -11.8770
   -11.8728 -11.8706 -11.8705 -11.8689 -11.8688 -11.7719 -11.7719 -11.7718
   -11.7718 -11.7560 -11.7560 -11.4998 -11.4998 -11.4994 -11.4994 -11.4987
   -11.4987 -11.4544 -11.4467 -11.2322 -11.2322 -11.2318 -11.2318 -11.2033
   -11.2033 -11.2029 -11.2029 -10.8455 -10.7637 -10.7637 -10.7636 -10.7636
   -10.7125 -10.7116 -10.7073 -10.7063 -10.6527 -10.6527 -10.5836 -10.5832
   -10.5544 -10.5544 -10.4743 -10.4743 -10.4743 -10.4743 -10.3936 -10.3936
   -10.3933 -10.3933 -10.3017 -10.3017 -10.3017 -10.3017 -10.3017 -10.3017
   -10.2613 -10.2613 -10.2078 -10.2078 -10.2078 -10.2078 -10.0860 -10.0860
   -10.0477 -10.0477 -10.0473 -10.0473  -9.8480  -9.8479  -9.8426  -9.8426
    -9.8359  -9.8359  -9.8356  -9.8356  -9.8246  -9.8245  -9.7853  -9.7853
    -9.7844  -9.7844  -9.7828  -9.7828  -9.7828  -9.7828  -9.7117  -9.6415
    -9.6415  -9.6415  -9.6415  -9.5729  -9.5729  -9.5726  -9.5726  -9.5709
    -9.5708  -9.5071  -9.5070  -9.5070  -9.5069  -9.5069  -9.5067  -9.4276
    -9.4276  -9.4276  -9.4276  -9.2410  -9.2410  -9.2410  -9.2410  -9.1695
    -9.1695  -9.1114  -9.1114  -9.1114  -9.1114  -9.0921  -9.0921  -8.9906
    -8.9906  -8.9906  -8.9906  -8.9389  -8.9389  -8.9386  -8.9386  -8.9259
    -8.9258  -8.9045  -8.9045  -8.8669  -8.8669  -8.8661  -8.8661  -8.6521
    -8.6521  -8.4961  -8.4961  -8.4961  -8.4961  -8.4872  -8.4872  -8.4872
    -8.4872  -8.2993  -8.2993  -8.2992  -8.2992  -8.1977  -8.1976  -8.1974
    -8.1974  -8.1220  -8.1220  -8.0895  -8.0895  -8.0893  -8.0893  -8.0889
    -8.0889  -8.0490  -8.0490  -8.0489  -8.0488  -8.0338  -8.0336  -8.0335
    -8.0334  -7.9944  -7.9862  -7.9861  -7.9861  -7.9861  -7.9353  -7.9351
    -7.9239  -7.9238  -7.9237  -7.9236  -7.9115  -7.9112  -7.9111  -7.9110
    -7.9073  -7.9070  -7.8161  -7.8161  -7.7817  -7.7816  -7.7815  -7.7814
    -7.7013  -7.7013  -7.7010  -7.7009  -7.6917  -7.6913  -7.5436  -7.5436
    -7.5432  -7.5432  -7.4951  -7.4951  -7.2685  -7.2682  -7.2384  -7.2382
    -7.2358  -7.2358  -7.2358  -7.2358  -7.2186  -7.2186  -7.2186  -7.2186
    -7.1936  -7.1936  -7.0848  -7.0848  -7.0846  -7.0846  -6.9038  -6.9037
    -6.7036  -6.6913  -6.6714  -6.6714  -6.6712  -6.6712  -6.6335  -6.6331
    -6.6192  -6.6188  -6.5612  -6.5612  -6.5612  -6.5612  -6.5114  -6.5114
    -6.5059  -6.5059  -6.4733  -6.3401  -6.3401  -6.1592  -6.1592  -6.1590
    -6.1590  -6.0196  -6.0196  -6.0194  -6.0193  -5.9958  -5.9957  -5.9663
    -5.9662  -5.9555  -5.9554  -5.9508  -5.9507  -5.9506  -5.9505  -5.9326
    -5.9325  -5.9324  -5.9321  -5.8889  -5.8886  -5.8884  -5.8883  -5.8875
    -5.8763  -5.8761  -5.8732  -5.8731  -5.8729  -5.8729  -5.8579  -5.8576
    -5.7334  -5.7334  -5.6017  -5.6017  -1.0730  -0.8885  -0.8885  -0.8873
    -0.8873  -0.7549  -0.7516  -0.7516  -0.7513  -0.7513  -0.7306  -0.7306
    -0.7082  -0.7082  -0.7049  -0.7049  -0.7045  -0.7044  -0.6943  -0.6943
    -0.6789  -0.6789  -0.4720  -0.4720  -0.4720  -0.4720  -0.4552  -0.4552
    -0.4551  -0.4551  -0.4080  -0.4080  -0.4078  -0.4078  -0.1943  -0.1940
    -0.1888  -0.1888  -0.1764  -0.1683  -0.1680   0.0317   0.0317   0.0320
     0.0320   0.0507   0.0507   0.1523   0.1524   0.1660   0.1798   0.1884
     0.1884   0.1886   0.1886   0.2214   0.2214   0.2216   0.2216   0.2306
     0.2306   0.2306   0.2306   0.2813   0.2815   0.2888   0.2890   0.3959
     0.3959   0.3960   0.3960   0.5267   0.5267   0.5269   0.5269   0.5293
     0.5699   0.5699   0.5699   0.5699   0.6138   0.6138   0.7607   0.7607
     0.8498   0.8505   0.9337   0.9337   0.9339   0.9339   1.0605   1.0605
     1.0606   1.0606   1.0689   1.0689   1.0696   1.0696   1.0791   1.0836
     1.0839   1.1381   1.1381   1.1384   1.1384   1.2799   1.2799   1.2802
     1.2802   1.3068   1.3068   1.3126   1.3126   1.3992   1.3996   1.4754
     1.4907   1.4907   1.5120   1.5120   1.5121   1.5121   1.5357   1.5357
     1.5777   1.5777   1.5779   1.5779   1.6052   1.6052   1.6053   1.6053
     1.6350   1.6350   1.6354   1.6354   1.7147   1.7147   1.7401   1.7402
     1.7822   1.7822   1.7827   1.7827   1.7938   1.7945   1.8205   1.8205
     1.8207   1.8207   1.8432   1.8434   1.8708   1.8708   1.8708   1.8708
     1.8966   1.8966   1.9401   1.9402   2.0087   2.0087   2.0088   2.0088
     2.0097   2.0308   2.0308   2.0309   2.0309   2.0319   2.0319   2.0327
     2.0327   2.0659   2.0659   2.1011   2.1011   2.1012   2.1012   2.2342
     2.2342   2.2535   2.3161   2.3166   2.3465   2.3466   2.3499   2.3499
     2.3503   2.3503   2.3709   2.3709   2.3711   2.3711   2.4320   2.4320
     2.4881   2.4881   2.5337   2.5337   2.5342   2.5342   2.5566   2.5571
     2.5768   2.5768   2.5769   2.5769   2.5958   2.5958   2.6544   2.6544
     2.6545   2.6545   2.7165   2.7165   2.7166   2.7166   2.7170   2.7170
     2.7392   2.7394   2.7425   2.7425   2.7432   2.7432   2.7899   2.7899
     2.7905   2.7905   2.8293   2.8293   2.8300   2.8300   2.9331   2.9331
     2.9332   2.9332   2.9399   2.9399   2.9766   2.9766   2.9768   2.9768
     3.0909   3.0910   3.1547   3.1547   3.1660   3.1855   3.1856   3.2043
     3.2045   3.2135   3.2135   3.2135   3.2135   3.2157   3.2157   3.2161
     3.2161   3.2672   3.2672   3.2673   3.2673   3.3303   3.3305   3.3580
     3.3580   3.3583   3.3583   3.3694   3.3694   3.3695   3.3695   3.4005
     3.4005   3.4214   3.4336   3.4336   3.4338   3.4338   3.4402   3.4404
     3.4736   3.4736   3.4741   3.4741   3.5280   3.5280   3.5281   3.5281
     3.5332   3.5334   3.5916   3.5916   3.6238   3.6239   3.6290   3.6290
     3.6292   3.6293   3.6421   3.6421   3.6452   3.6452   3.6453   3.6454
     3.6979   3.6979   3.6980   3.6980   3.6991   3.6992   3.6993   3.6993
     3.7206   3.7206   3.7207   3.7208   3.7211   3.7211   3.7510   3.7516
     3.7538

          k = 0.0000 0.3849 0.0000 (685416 PWs)   bands (ev):

   -24.1751 -24.1746 -24.1745 -24.1739 -24.1737 -24.1732 -24.1728 -24.1727
   -24.1721 -24.1719 -24.1676 -24.1672 -24.1671 -24.1666 -24.1664 -24.1647
   -24.1643 -24.1642 -24.1638 -24.1636 -24.1612 -24.1608 -24.1607 -24.1604
   -24.1601 -23.2218 -23.1578 -23.0782 -23.0782 -23.0148 -23.0148 -22.9044
   -22.7638 -22.7637 -22.7173 -22.6558 -22.6558 -22.5945 -22.5945 -22.5786
   -22.5786 -22.3523 -22.3523 -22.2334 -22.1742 -22.1742 -22.1002 -22.1002
   -21.9828 -21.9828 -21.9435 -21.9266 -21.9266 -21.8141 -21.8141 -21.7161
   -21.7161 -21.7058 -21.7058 -21.5448 -21.5448 -21.4442 -21.4442 -21.3025
   -21.1832 -21.1831 -21.1356 -21.1356 -21.1351 -21.1351 -21.0916 -21.0916
   -20.9740 -20.9254 -20.9254 -20.8974 -20.8974 -20.8564 -20.8564 -20.8481
   -20.8481 -20.8011 -20.8011 -20.5483 -20.5483 -20.5129 -20.5129 -20.4064
   -20.3925 -20.3925 -20.3562 -20.3562 -20.3022 -20.3022 -20.2890 -20.2693
   -20.2626 -20.2551 -20.2198 -20.2151 -20.2088 -20.1957 -20.1844 -20.1657
   -20.1541 -20.1479 -20.1479 -20.1283 -20.1283 -20.0571 -20.0571 -20.0391
   -20.0391 -19.9297 -19.9297 -19.8834 -19.8834 -19.7527 -19.7527 -19.7493
   -19.7493 -19.7028 -19.7028 -19.6379 -19.6379 -14.4577 -14.4545 -14.3653
   -14.2540 -14.2540 -14.2356 -14.2322 -14.1686 -14.1686 -14.1262 -14.1262
   -14.0784 -14.0336 -14.0336 -14.0283 -14.0247 -13.9793 -13.9793 -13.9359
   -13.9359 -13.8648 -13.8648 -13.8430 -13.8430 -13.7160 -13.7160 -13.6602
   -13.6602 -13.5658 -13.5658 -13.5610 -13.5610 -13.5092 -13.5039 -13.4463
   -13.4463 -13.3659 -13.3659 -13.3039 -13.3039 -13.2802 -13.2736 -13.0851
   -13.0605 -13.0605 -13.0271 -13.0271 -12.9745 -12.9745 -12.8701 -12.8701
   -12.5897 -12.5897 -12.5297 -12.5297 -12.5247 -12.5247 -12.4504 -12.4258
   -12.4258 -12.4228 -12.4228 -12.2653 -12.2653 -12.2639 -12.2639 -12.1754
   -12.1754 -12.0500 -12.0480 -12.0479 -12.0449 -12.0447 -12.0071 -12.0070
   -12.0065 -12.0050 -12.0050 -11.9727 -11.9713 -11.9713 -11.9711 -11.9709
   -11.9373 -11.9373 -11.9312 -11.9312 -11.9031 -11.8994 -11.8992 -11.8874
   -11.8874 -11.8806 -11.8783 -11.8781 -11.8770 -11.8769 -11.6246 -11.6246
   -11.5797 -11.5797 -11.4676 -11.4676 -11.4454 -11.4454 -11.3716 -11.3716
   -11.3386 -11.3315 -11.1887 -11.1887 -11.1008 -11.1008 -11.0576 -11.0515
   -11.0502 -11.0502 -11.0343 -10.9760 -10.9760 -10.9649 -10.9649 -10.9017
   -10.9017 -10.8160 -10.7283 -10.6726 -10.6726 -10.6530 -10.6530 -10.6236
   -10.6236 -10.6094 -10.6094 -10.5368 -10.5368 -10.4297 -10.4297 -10.3838
   -10.3669 -10.3629 -10.3489 -10.3489 -10.2995 -10.2381 -10.2381 -10.2143
   -10.2143 -10.1950 -10.1950 -10.1660 -10.1660 -10.1294 -10.0679 -10.0637
   -10.0580 -10.0580 -10.0117 -10.0117 -10.0040 -10.0040  -9.9742  -9.9742
    -9.9486  -9.9486  -9.9435  -9.9435  -9.8836  -9.8836  -9.8787  -9.8787
    -9.8735  -9.8735  -9.7278  -9.7250  -9.6887  -9.6765  -9.6765  -9.6436
    -9.6436  -9.6338  -9.6338  -9.6201  -9.5999  -9.5999  -9.5823  -9.5823
    -9.4990  -9.4990  -9.4732  -9.4288  -9.4288  -9.4012  -9.4012  -9.3513
    -9.2945  -9.2945  -9.2441  -9.2441  -9.1804  -9.1804  -9.1562  -9.1446
    -9.1446  -9.1440  -9.1440  -9.0767  -9.0656  -9.0656  -9.0420  -9.0420
    -9.0021  -9.0021  -8.9984  -8.9984  -8.9386  -8.9386  -8.9028  -8.9028
    -8.8788  -8.8788  -8.8781  -8.8306  -8.8306  -8.7816  -8.7815  -8.7639
    -8.7639  -8.6660  -8.6468  -8.6468  -8.6008  -8.6008  -8.5458  -8.5458
    -8.4131  -8.4130  -8.3837  -8.2928  -8.2928  -8.2449  -8.2248  -8.1538
    -8.1538  -8.1101  -8.1101  -8.1062  -8.1061  -8.0801  -8.0801  -8.0376
    -8.0375  -8.0148  -8.0147  -7.9971  -7.9929  -7.9929  -7.9925  -7.9881
    -7.9779  -7.9779  -7.9337  -7.9335  -7.9298  -7.9297  -7.9294  -7.9292
    -7.9200  -7.9198  -7.9122  -7.9121  -7.9083  -7.8859  -7.8607  -7.8606
    -7.8331  -7.8331  -7.8261  -7.8261  -7.8059  -7.8058  -7.8024  -7.8023
    -7.7948  -7.7661  -7.7661  -7.6567  -7.6092  -7.6092  -7.5861  -7.5861
    -7.5489  -7.5489  -7.5152  -7.4921  -7.4921  -7.4906  -7.4906  -7.4244
    -7.4244  -7.3366  -7.3366  -7.2682  -7.2239  -7.2239  -7.0792  -7.0792
    -7.0732  -7.0207  -7.0207  -6.9972  -6.9473  -6.8579  -6.8545  -6.8545
    -6.7912  -6.7912  -6.7069  -6.7069  -6.6950  -6.6882  -6.6704  -6.6500
    -6.5895  -6.5787  -6.5691  -6.5462  -6.5385  -6.4920  -6.4914  -6.4914
    -6.4877  -6.4386  -6.4386  -6.3438  -6.3438  -6.3174  -6.3174  -6.1551
    -6.1551  -6.0711  -6.0711  -5.9869  -5.9867  -5.9806  -5.9804  -5.9666
    -5.9665  -5.9568  -5.9567  -5.9475  -5.9473  -5.9394  -5.9392  -5.9286
    -5.9284  -5.8918  -5.8916  -5.8913  -5.8913  -5.8863  -5.8863  -5.8861
    -5.8821  -5.8694  -5.8629  -5.8549  -5.8489  -5.8489  -5.8133  -5.8133
    -5.7549  -5.7548  -5.6685  -5.6685  -1.0272  -0.9003  -0.8417  -0.8417
    -0.8248  -0.8248  -0.7788  -0.7788  -0.7753  -0.7521  -0.7055  -0.7055
    -0.7019  -0.7019  -0.6553  -0.6553  -0.6356  -0.6356  -0.6321  -0.6321
    -0.6299  -0.6152  -0.6152  -0.5869  -0.5869  -0.5774  -0.5427  -0.4864
    -0.3633  -0.3557  -0.3557  -0.3291  -0.2848  -0.2766  -0.2766  -0.2598
    -0.2598  -0.1961  -0.1961  -0.1481  -0.1481  -0.1402  -0.1083  -0.1083
    -0.0853  -0.0546  -0.0339  -0.0339  -0.0259  -0.0259   0.0093   0.0418
     0.0884   0.0885   0.1216   0.1216   0.1249   0.1345   0.2016   0.2016
     0.2231   0.2231   0.3824   0.3824   0.4148   0.5491   0.5491   0.5649
     0.5772   0.5772   0.6007   0.6007   0.6499   0.6500   0.6720   0.6930
     0.7108   0.7108   0.7296   0.7577   0.7577   0.7963   0.7963   0.8266
     0.8266   0.8711   0.8751   0.8751   0.9027   0.9027   0.9114   0.9114
     0.9119   0.9119   0.9440   0.9440   1.0628   1.0628   1.0988   1.1148
     1.1707   1.1707   1.2159   1.2159   1.2218   1.2263   1.3301   1.3301
     1.3371   1.3371   1.3403   1.3403   1.3469   1.3469   1.4011   1.4128
     1.4128   1.4277   1.4277   1.4486   1.4486   1.4509   1.4509   1.4611
     1.4611   1.4835   1.4883   1.4883   1.5031   1.5032   1.5110   1.5235
     1.5235   1.5497   1.6174   1.6215   1.6215   1.6432   1.6432   1.6468
     1.7473   1.7473   1.7499   1.7499   1.7869   1.7869   1.8558   1.8558
     1.8814   1.8814   1.8819   1.8819   1.8972   1.8972   1.9184   1.9184
     1.9262   1.9583   1.9583   1.9615   1.9737   1.9737   2.0103   2.0103
     2.0406   2.0429   2.0429   2.0443   2.0557   2.0557   2.0773   2.0773
     2.0960   2.0960   2.1474   2.1888   2.1888   2.1944   2.1944   2.2304
     2.2436   2.2436   2.2681   2.2681   2.2788   2.2788   2.2876   2.3267
     2.3267   2.3388   2.3690   2.3690   2.3690   2.3893   2.4444   2.4444
     2.4664   2.4664   2.5220   2.5220   2.5384   2.5699   2.5699   2.5822
     2.5822   2.5864   2.5864   2.6153   2.6153   2.6233   2.6233   2.6238
     2.6238   2.6756   2.6914   2.6914   2.7047   2.7047   2.7420   2.7420
     2.7464   2.7464   2.7796   2.7825   2.8155   2.8155   2.8670   2.8670
     2.8677   2.8786   2.8786   2.9381   2.9717   2.9717   2.9849   2.9849
     2.9902   2.9902   3.0021   3.0021   3.0055   3.0055   3.0072   3.0072
     3.0658   3.0658   3.0724   3.0724   3.0835   3.0835   3.0905   3.1631
     3.1631   3.1812   3.1812   3.1827   3.1954   3.2007   3.2007   3.2172
     3.2173   3.2273   3.2548   3.2548   3.2748   3.2748   3.2771   3.2771
     3.2790   3.2821   3.2821   3.3032   3.3032   3.3129   3.3129   3.3547
     3.3547   3.3986   3.3986   3.4014   3.4014   3.4107   3.4107   3.4144
     3.4144   3.4301   3.4301   3.4575   3.4882   3.4933   3.4933   3.5164
     3.5164   3.5378   3.5378   3.5626   3.5781   3.5781   3.6021   3.6146
     3.6146   3.6161   3.6161   3.6558   3.6560   3.6624   3.6625   3.6760
     3.6760   3.7010   3.7010   3.7095   3.7095   3.7268   3.7268   3.7348
     3.7630   3.7631   3.7755   3.7755   3.7792   3.7792   3.8035   3.8035
     3.8061

          k = 0.3333 0.0000 0.0000 (685310 PWs)   bands (ev):

   -24.1757 -24.1755 -24.1749 -24.1746 -24.1742 -24.1707 -24.1705 -24.1705
   -24.1703 -24.1700 -24.1698 -24.1697 -24.1695 -24.1693 -24.1692 -24.1625
   -24.1624 -24.1623 -24.1620 -24.1620 -24.1617 -24.1617 -24.1615 -24.1614
   -24.1611 -23.2272 -23.1791 -23.0361 -23.0357 -22.9886 -22.9884 -22.9882
   -22.8470 -22.8004 -22.8000 -22.6610 -22.6606 -22.4785 -22.4774 -22.4774
   -22.4318 -22.4318 -22.2992 -22.2988 -22.2518 -22.2518 -22.2493 -22.1194
   -22.1194 -22.0750 -22.0746 -21.7798 -21.7798 -21.7324 -21.6162 -21.6162
   -21.5744 -21.5744 -21.5737 -21.5733 -21.5720 -21.5720 -21.4468 -21.4106
   -21.4106 -21.3001 -21.2997 -21.2926 -21.2926 -21.1215 -21.1215 -20.9948
   -20.9948 -20.8891 -20.8891 -20.8507 -20.8200 -20.8200 -20.7436 -20.7432
   -20.6540 -20.6538 -20.6144 -20.6142 -20.5571 -20.4777 -20.4775 -20.4765
   -20.4765 -20.4757 -20.4753 -20.4581 -20.4580 -20.3806 -20.3804 -20.3232
   -20.3232 -20.2888 -20.2888 -20.1547 -20.1547 -20.1502 -20.1284 -20.1283
   -20.1174 -20.1159 -20.1159 -20.0437 -20.0433 -20.0319 -20.0313 -20.0312
   -19.9978 -19.9166 -19.9033 -19.9030 -19.8499 -19.8497 -19.8323 -19.8110
   -19.8107 -19.7417 -19.6528 -19.6026 -19.5761 -14.4528 -14.4142 -14.4142
   -14.4142 -14.3301 -14.3301 -14.2612 -14.2313 -14.2313 -14.1483 -14.0368
   -14.0362 -13.9785 -13.9785 -13.9568 -13.9562 -13.8981 -13.8976 -13.8613
   -13.8526 -13.8526 -13.7212 -13.7208 -13.6942 -13.6302 -13.6294 -13.6025
   -13.6017 -13.5316 -13.5297 -13.5013 -13.5011 -13.5010 -13.5010 -13.5006
   -13.5005 -13.4886 -13.4380 -13.4372 -13.4048 -13.4043 -13.4012 -13.3534
   -13.3529 -13.2304 -13.2304 -13.1501 -13.1495 -12.8758 -12.7704 -12.7704
   -12.7400 -12.7135 -12.7135 -12.6383 -12.5037 -12.3535 -12.3535 -12.3258
   -12.2686 -12.2681 -12.1238 -12.0369 -12.0367 -12.0362 -12.0359 -12.0340
   -12.0337 -12.0334 -12.0332 -12.0304 -12.0302 -11.9423 -11.9407 -11.9406
   -11.9390 -11.9389 -11.9358 -11.9357 -11.9356 -11.9354 -11.9353 -11.9352
   -11.8967 -11.8967 -11.8764 -11.8710 -11.8702 -11.8692 -11.8600 -11.8363
   -11.8353 -11.8091 -11.8090 -11.7956 -11.7947 -11.7947 -11.7602 -11.7602
   -11.7601 -11.7596 -11.7592 -11.7592 -11.7563 -11.7562 -11.6983 -11.6973
   -11.5989 -11.5577 -11.5570 -11.2617 -11.2607 -11.2491 -11.2491 -11.0949
   -11.0823 -11.0518 -10.9959 -10.9949 -10.8239 -10.8094 -10.8089 -10.7596
   -10.6978 -10.6754 -10.6751 -10.6345 -10.5625 -10.5622 -10.5039 -10.4990
   -10.4987 -10.4962 -10.4962 -10.4476 -10.4476 -10.4094 -10.4093 -10.4093
   -10.4092 -10.4088 -10.4084 -10.3364 -10.3363 -10.3167 -10.3167 -10.3144
   -10.2470 -10.2466 -10.1193 -10.1191 -10.0998 -10.0988 -10.0896 -10.0896
   -10.0603 -10.0600 -10.0535 -10.0535 -10.0048 -10.0039 -10.0038  -9.9674
    -9.9673  -9.9669  -9.8981  -9.8262  -9.8043  -9.8043  -9.7773  -9.7587
    -9.7583  -9.7434  -9.7434  -9.7429  -9.7429  -9.7270  -9.7270  -9.6588
    -9.6588  -9.6074  -9.6074  -9.5892  -9.5891  -9.5808  -9.5804  -9.5719
    -9.5715  -9.5013  -9.5013  -9.4978  -9.4930  -9.4719  -9.4711  -9.4480
    -9.4096  -9.4096  -9.3242  -9.3242  -9.3212  -9.3212  -9.2574  -9.2570
    -9.1650  -9.1642  -9.1642  -9.1642  -9.1635  -9.1635  -9.0828  -9.0828
    -9.0532  -9.0530  -8.9875  -8.9875  -8.8753  -8.8753  -8.8691  -8.8691
    -8.8092  -8.7026  -8.7022  -8.7022  -8.6335  -8.6335  -8.5922  -8.5919
    -8.5862  -8.5857  -8.5856  -8.5855  -8.5782  -8.5781  -8.5697  -8.5697
    -8.4361  -8.3854  -8.3661  -8.3661  -8.3304  -8.3251  -8.3245  -8.2912
    -8.2912  -8.2489  -8.2487  -8.2285  -8.2285  -8.1431  -8.1431  -8.0180
    -8.0107  -8.0106  -8.0046  -8.0044  -7.9983  -7.9889  -7.9887  -7.9773
    -7.9771  -7.9379  -7.9373  -7.9286  -7.9263  -7.9262  -7.9256  -7.9253
    -7.9155  -7.9153  -7.9082  -7.9079  -7.9074  -7.9071  -7.8974  -7.8971
    -7.8808  -7.8806  -7.8805  -7.8803  -7.8801  -7.7606  -7.7605  -7.7414
    -7.7410  -7.6995  -7.6991  -7.6764  -7.6657  -7.6657  -7.5398  -7.5397
    -7.4971  -7.4582  -7.4582  -7.4100  -7.4097  -7.4097  -7.3546  -7.3542
    -7.3084  -7.3081  -7.2231  -7.2229  -7.1772  -7.1644  -7.1642  -7.0958
    -7.0342  -6.9738  -6.9738  -6.9738  -6.9733  -6.9729  -6.9722  -6.9720
    -6.9400  -6.9400  -6.9366  -6.8325  -6.8323  -6.7462  -6.7462  -6.6878
    -6.6878  -6.4992  -6.4990  -6.4653  -6.4465  -6.4465  -6.4256  -6.4256
    -6.4164  -6.3321  -6.3318  -6.3253  -6.3148  -6.3146  -6.2380  -6.1222
    -6.1219  -6.1152  -6.0489  -6.0487  -6.0408  -6.0054  -6.0052  -5.9931
    -5.9724  -5.9626  -5.9624  -5.9601  -5.9387  -5.9384  -5.9214  -5.9212
    -5.9209  -5.9206  -5.9057  -5.9054  -5.8875  -5.8830  -5.8828  -5.8780
    -5.8778  -5.8774  -5.8773  -5.8729  -5.8726  -5.8693  -5.8618  -5.8615
    -5.8395  -5.6930  -5.6044  -5.5633  -1.0479  -0.9773  -0.9091  -0.8890
    -0.8541  -0.7600  -0.7600  -0.7495  -0.7439  -0.7409  -0.7328  -0.7281
    -0.7062  -0.7059  -0.6988  -0.6985  -0.6848  -0.6846  -0.6809  -0.6809
    -0.5914  -0.5786  -0.5784  -0.5644  -0.5642  -0.5133  -0.4844  -0.4844
    -0.4677  -0.4674  -0.4046  -0.2897  -0.2895  -0.2392  -0.2389  -0.2258
    -0.1667  -0.1667  -0.1643  -0.1643  -0.1300  -0.0927  -0.0925  -0.0689
    -0.0544  -0.0541  -0.0153   0.1277   0.1278   0.1687   0.1689   0.1943
     0.1944   0.1982   0.1983   0.2068   0.2070   0.2136   0.2402   0.2404
     0.2866   0.2868   0.3085   0.3086   0.3151   0.3153   0.3481   0.3485
     0.3937   0.3939   0.4097   0.5479   0.5480   0.5484   0.6059   0.6060
     0.6130   0.6311   0.6568   0.6571   0.7381   0.7382   0.7475   0.7675
     0.7676   0.8445   0.8446   0.8759   0.8766   0.9118   0.9118   0.9398
     0.9546   0.9553   1.0383   1.0387   1.0719   1.1056   1.1060   1.1063
     1.1269   1.1628   1.1723   1.1726   1.1836   1.1837   1.1865   1.1920
     1.1920   1.2563   1.2570   1.3507   1.3508   1.4072   1.4074   1.4224
     1.4227   1.4255   1.4259   1.4778   1.4786   1.4932   1.5020   1.5042
     1.5046   1.5767   1.5770   1.5783   1.5785   1.5818   1.6419   1.6758
     1.7550   1.7550   1.7645   1.7646   1.7997   1.8176   1.8181   1.8203
     1.8211   1.8291   1.8291   1.8352   1.8352   1.8432   1.8434   1.8675
     1.8691   1.8692   1.8792   1.8793   1.8849   1.8998   1.9006   1.9101
     1.9103   1.9264   1.9284   1.9284   1.9449   1.9450   1.9607   1.9609
     1.9749   1.9751   1.9793   1.9794   2.0353   2.0623   2.0865   2.0869
     2.1113   2.1381   2.1383   2.1383   2.1390   2.1487   2.1719   2.1720
     2.1965   2.2004   2.2156   2.2163   2.2780   2.2781   2.2798   2.3412
     2.3418   2.3583   2.3723   2.3724   2.3771   2.3872   2.3874   2.4158
     2.4163   2.4241   2.4242   2.4471   2.4494   2.4495   2.4544   2.4551
     2.4755   2.4762   2.4900   2.4901   2.5828   2.5833   2.6610   2.6615
     2.6652   2.6708   2.6748   2.6752   2.7267   2.7268   2.7418   2.7422
     2.7515   2.7519   2.7520   2.7658   2.7660   2.7741   2.8452   2.8455
     2.8654   2.8654   2.9028   2.9420   2.9420   2.9492   2.9497   2.9700
     2.9705   2.9726   2.9727   2.9805   3.0336   3.0341   3.0810   3.0817
     3.0907   3.0908   3.1117   3.1118   3.1602   3.1635   3.1669   3.1671
     3.1691   3.1696   3.1706   3.1708   3.1732   3.1733   3.1849   3.1987
     3.1992   3.2264   3.2266   3.2530   3.2899   3.2901   3.3253   3.3256
     3.3262   3.3481   3.3521   3.3523   3.3916   3.3918   3.4198   3.4199
     3.4294   3.4294   3.4429   3.4624   3.4631   3.4662   3.4664   3.4720
     3.4725   3.4727   3.4942   3.4945   3.5074   3.5402   3.5404   3.5413
     3.5415   3.5437   3.5443   3.5445   3.5655   3.5657   3.5731   3.5737
     3.5823   3.5824   3.6075   3.6078   3.6442   3.6443   3.6487   3.6488
     3.6532   3.6537   3.6656   3.6659   3.6923   3.6924   3.7032   3.7033
     3.7125   3.7126   3.7596   3.7639   3.7782   3.7787   3.7920   3.7925
     3.8037

          k = 0.3333 0.3849 0.0000 (685362 PWs)   bands (ev):

   -24.1751 -24.1749 -24.1743 -24.1740 -24.1737 -24.1732 -24.1730 -24.1724
   -24.1722 -24.1718 -24.1675 -24.1673 -24.1669 -24.1667 -24.1664 -24.1646
   -24.1644 -24.1641 -24.1639 -24.1635 -24.1611 -24.1609 -24.1606 -24.1604
   -24.1601 -23.2058 -23.1578 -23.1419 -23.0941 -22.9674 -22.9044 -22.8887
   -22.8417 -22.8262 -22.7639 -22.7018 -22.6555 -22.6554 -22.5179 -22.4720
   -22.4584 -22.3984 -22.3366 -22.2298 -22.2184 -22.1739 -22.1713 -22.1615
   -21.9983 -21.9876 -21.9413 -21.9290 -21.8857 -21.8695 -21.7727 -21.7154
   -21.7145 -21.6613 -21.5912 -21.5419 -21.4529 -21.4302 -21.3809 -21.3452
   -21.3020 -21.2890 -21.2741 -21.2489 -21.1893 -21.0971 -21.0888 -21.0458
   -20.9790 -20.9612 -20.9235 -20.9214 -20.8383 -20.8016 -20.7742 -20.7099
   -20.7041 -20.7033 -20.6694 -20.6607 -20.5653 -20.5480 -20.5446 -20.5221
   -20.5183 -20.4206 -20.4179 -20.3898 -20.3571 -20.3564 -20.3454 -20.2759
   -20.2504 -20.2328 -20.2282 -20.2234 -20.2133 -20.1807 -20.1635 -20.1388
   -20.1334 -20.0805 -20.0585 -20.0570 -20.0370 -20.0367 -20.0364 -20.0334
   -19.9750 -19.9608 -19.9592 -19.9378 -19.8633 -19.8400 -19.8316 -19.7929
   -19.7028 -19.6993 -19.6977 -19.6268 -19.6086 -14.4276 -14.3652 -14.3529
   -14.3259 -14.3156 -14.3027 -14.2824 -14.2019 -14.1688 -14.1687 -14.1629
   -14.0672 -14.0617 -14.0339 -14.0336 -13.9549 -13.9393 -13.9053 -13.8276
   -13.8151 -13.7987 -13.7844 -13.7742 -13.7388 -13.7147 -13.7146 -13.7004
   -13.6591 -13.6574 -13.6399 -13.6255 -13.6234 -13.6180 -13.5545 -13.5524
   -13.4971 -13.4901 -13.4567 -13.3047 -13.2133 -13.2052 -13.0782 -13.0585
   -13.0585 -13.0424 -12.9958 -12.9750 -12.9748 -12.9703 -12.9312 -12.8478
   -12.7036 -12.6044 -12.6037 -12.5970 -12.4846 -12.4591 -12.4467 -12.4380
   -12.4369 -12.4230 -12.4229 -12.2663 -12.2659 -12.1361 -12.1092 -12.1090
   -12.0906 -12.0497 -12.0490 -12.0468 -12.0457 -12.0440 -12.0063 -12.0058
   -12.0042 -12.0041 -12.0034 -11.9912 -11.9882 -11.9725 -11.9720 -11.9708
   -11.9705 -11.9688 -11.9538 -11.9111 -11.9038 -11.9031 -11.9013 -11.8996
   -11.8942 -11.8815 -11.8793 -11.8781 -11.8753 -11.8580 -11.7642 -11.6985
   -11.6728 -11.6626 -11.6253 -11.4389 -11.4202 -11.4015 -11.3713 -11.3711
   -11.3542 -11.2616 -11.2318 -11.1902 -11.1886 -11.0582 -11.0395 -11.0343
   -11.0286 -10.9761 -10.9760 -10.9470 -10.8862 -10.8851 -10.8653 -10.8399
   -10.8307 -10.7946 -10.7615 -10.7304 -10.7195 -10.7065 -10.6430 -10.6147
   -10.6095 -10.6094 -10.6011 -10.5798 -10.5341 -10.4854 -10.4751 -10.4385
   -10.3890 -10.3698 -10.3628 -10.3622 -10.3492 -10.3492 -10.3108 -10.2993
   -10.2859 -10.2556 -10.2347 -10.2008 -10.1125 -10.1086 -10.1021 -10.0499
   -10.0465 -10.0133 -10.0121  -9.9780  -9.9710  -9.9435  -9.9252  -9.8743
    -9.8740  -9.8737  -9.8655  -9.8560  -9.8226  -9.8210  -9.8006  -9.7990
    -9.7928  -9.7711  -9.7542  -9.7155  -9.6925  -9.6883  -9.6853  -9.6841
    -9.6576  -9.6504  -9.6187  -9.6159  -9.5998  -9.5982  -9.5577  -9.5465
    -9.5103  -9.4757  -9.4687  -9.4531  -9.4445  -9.4293  -9.4289  -9.4154
    -9.4002  -9.3933  -9.3930  -9.3894  -9.3496  -9.3208  -9.2909  -9.2875
    -9.2193  -9.1577  -9.1563  -9.1560  -9.1071  -9.0782  -9.0743  -9.0572
    -8.9992  -8.9992  -8.9990  -8.9852  -8.9062  -8.8948  -8.8605  -8.8435
    -8.7848  -8.7704  -8.7288  -8.7271  -8.7257  -8.7033  -8.6663  -8.6654
    -8.6048  -8.6012  -8.6009  -8.5625  -8.4785  -8.4708  -8.4701  -8.4409
    -8.4311  -8.4145  -8.4098  -8.3525  -8.3243  -8.3075  -8.2834  -8.2831
    -8.2780  -8.2418  -8.2413  -8.2095  -8.1849  -8.1661  -8.1315  -8.1307
    -8.0758  -8.0147  -8.0072  -8.0064  -7.9978  -7.9967  -7.9962  -7.9912
    -7.9780  -7.9779  -7.9428  -7.9358  -7.9316  -7.9282  -7.9278  -7.9271
    -7.9256  -7.9225  -7.9224  -7.9195  -7.9095  -7.9088  -7.9085  -7.9007
    -7.8970  -7.8840  -7.8765  -7.8578  -7.8474  -7.8442  -7.7351  -7.7200
    -7.6875  -7.6822  -7.6772  -7.6484  -7.6416  -7.5969  -7.5858  -7.5601
    -7.5189  -7.5152  -7.4808  -7.4318  -7.4288  -7.3927  -7.3293  -7.3028
    -7.2971  -7.2940  -7.2682  -7.2495  -7.2334  -7.2006  -7.1086  -7.0971
    -7.0823  -7.0771  -7.0731  -7.0657  -7.0438  -7.0307  -6.9800  -6.8909
    -6.8902  -6.8339  -6.7921  -6.7865  -6.7722  -6.6844  -6.6422  -6.6040
    -6.5989  -6.5865  -6.5639  -6.5158  -6.4968  -6.4667  -6.4630  -6.3757
    -6.3460  -6.3348  -6.3274  -6.3263  -6.3214  -6.3096  -6.2093  -6.2011
    -6.2003  -6.1633  -6.0733  -6.0483  -6.0259  -5.9958  -5.9727  -5.9716
    -5.9615  -5.9595  -5.9550  -5.9460  -5.9429  -5.9345  -5.9327  -5.9269
    -5.9217  -5.9173  -5.9122  -5.9101  -5.9026  -5.8862  -5.8826  -5.8779
    -5.8756  -5.8750  -5.8715  -5.8711  -5.8709  -5.8659  -5.8593  -5.7691
    -5.7674  -5.7520  -5.6430  -5.6172  -1.0018  -0.9296  -0.8753  -0.8665
    -0.8617  -0.8065  -0.8008  -0.7737  -0.7518  -0.7376  -0.7328  -0.7284
    -0.7162  -0.6568  -0.6553  -0.6407  -0.6260  -0.6252  -0.6235  -0.6178
    -0.5891  -0.5700  -0.5657  -0.5540  -0.5292  -0.5286  -0.4897  -0.4124
    -0.3945  -0.3898  -0.3877  -0.3615  -0.3579  -0.3567  -0.3499  -0.3206
    -0.2866  -0.2652  -0.2623  -0.2558  -0.2532  -0.2116  -0.0990  -0.0961
    -0.0531  -0.0311  -0.0301  -0.0281  -0.0211   0.0117   0.0262   0.0831
     0.0932   0.1305   0.1328   0.1489   0.1746   0.2510   0.2915   0.3628
     0.3658   0.3659   0.3825   0.4175   0.4405   0.4468   0.4943   0.5037
     0.5233   0.5277   0.5489   0.5573   0.5984   0.6190   0.6667   0.6791
     0.6987   0.7181   0.7191   0.7535   0.7706   0.7798   0.7920   0.7970
     0.8193   0.8249   0.8332   0.8576   0.8681   0.8768   0.8788   0.9577
     0.9739   0.9753   0.9844   1.0213   1.0718   1.0815   1.1244   1.1340
     1.1412   1.1587   1.1741   1.1981   1.2015   1.2211   1.2450   1.2481
     1.2524   1.2533   1.2641   1.2692   1.2994   1.3037   1.3253   1.3272
     1.3289   1.3538   1.4218   1.4422   1.4834   1.4837   1.5117   1.5193
     1.5224   1.5283   1.5375   1.5480   1.5724   1.6101   1.6105   1.6172
     1.6308   1.6395   1.6439   1.6705   1.6730   1.6742   1.6945   1.7078
     1.7235   1.7513   1.7533   1.7724   1.7811   1.7872   1.8014   1.8181
     1.8295   1.8323   1.8429   1.8735   1.8874   1.8976   1.9185   1.9385
     1.9419   1.9852   1.9875   1.9879   2.0107   2.0175   2.0312   2.0334
     2.0381   2.0399   2.0595   2.0614   2.0654   2.0671   2.0698   2.0890
     2.1011   2.1034   2.1457   2.1467   2.1634   2.1727   2.1803   2.2216
     2.2318   2.2482   2.2546   2.2814   2.2980   2.3131   2.3138   2.3249
     2.3267   2.3497   2.3678   2.3726   2.3812   2.3923   2.3972   2.4104
     2.4149   2.4155   2.4520   2.4627   2.4634   2.4800   2.4811   2.4937
     2.5100   2.5632   2.5786   2.5947   2.6038   2.6122   2.6158   2.6363
     2.6750   2.6972   2.6977   2.6991   2.7039   2.7376   2.7628   2.7815
     2.7840   2.7928   2.7959   2.8035   2.8066   2.8075   2.8081   2.8801
     2.8816   2.8862   2.8921   2.8947   2.9016   2.9040   2.9104   2.9297
     2.9351   2.9619   2.9640   2.9709   3.0009   3.0035   3.0053   3.0275
     3.0322   3.0344   3.0603   3.0627   3.1167   3.1537   3.1616   3.1710
     3.1721   3.1856   3.1941   3.1973   3.2018   3.2090   3.2140   3.2252
     3.2313   3.2483   3.2554   3.2600   3.2824   3.2867   3.2964   3.2982
     3.3090   3.3199   3.3382   3.3405   3.3487   3.3570   3.3675   3.3779
     3.3783   3.4067   3.4200   3.4301   3.4389   3.4660   3.4790   3.4797
     3.4875   3.5033   3.5059   3.5143   3.5313   3.5377   3.5416   3.5431
     3.5754   3.5777   3.5833   3.5912   3.5915   3.5924   3.6028   3.6031
     3.6141   3.6184   3.6189   3.6228   3.6267   3.6288   3.6348   3.6478
     3.6484   3.6727   3.6737   3.6758   3.6795   3.6891   3.7075   3.7158
     3.7231   3.7318   3.7410   3.7570   3.7777   3.7808   3.7844   3.7880
     3.7919

     highest occupied, lowest unoccupied level (ev):    -5.5633   -1.0730

!    total energy              =   -5087.22995814 Ry
     total all-electron energy =    -19762.216545 Ry
     estimated scf accuracy    <       0.00000093 Ry

     The total energy is the sum of the following terms:
     one-electron contribution =  -46353.73814261 Ry
     hartree contribution      =   23360.59125543 Ry
     xc contribution           =   -1104.23381009 Ry
     ewald contribution        =   20567.86056732 Ry
     one-center paw contrib.   =   -1557.70982819 Ry

     convergence has been achieved in  11 iterations

     Writing all to output data dir ./hBN_water_Oup_Hdown.save/

     init_run     :     89.33s CPU     90.63s WALL (       1 calls)
     electrons    :   4128.92s CPU   4158.73s WALL (       1 calls)

     Called by init_run:
     wfcinit      :     81.51s CPU     82.44s WALL (       1 calls)
     potinit      :      1.32s CPU      1.34s WALL (       1 calls)
     hinit0       :      1.95s CPU      2.04s WALL (       1 calls)

     Called by electrons:
     c_bands      :   3855.98s CPU   3882.44s WALL (      11 calls)
     sum_band     :    265.83s CPU    267.45s WALL (      11 calls)
     v_of_rho     :      1.84s CPU      1.91s WALL (      12 calls)
     newd         :      3.81s CPU      5.05s WALL (      12 calls)
     PAW_pot      :      1.28s CPU      1.29s WALL (      12 calls)
     mix_rho      :      0.50s CPU      0.53s WALL (      11 calls)

     Called by c_bands:
     init_us_2    :     16.65s CPU     16.77s WALL (      92 calls)
     init_us_2:cp :     16.65s CPU     16.77s WALL (      92 calls)
     cegterg      :   3834.57s CPU   3860.42s WALL (      48 calls)

     Called by *egterg:
     cdiaghg      :    113.61s CPU    118.77s WALL (     381 calls)
     h_psi        :   1589.19s CPU   1597.37s WALL (     385 calls)
     s_psi        :    383.30s CPU    384.08s WALL (     385 calls)
     g_psi        :      4.41s CPU      4.45s WALL (     333 calls)

     Called by h_psi:
     h_psi:calbec :    464.60s CPU    465.49s WALL (     385 calls)
     vloc_psi     :    731.27s CPU    733.58s WALL (     385 calls)
     add_vuspsi   :    384.47s CPU    385.20s WALL (     385 calls)

     General routines
     calbec       :    595.38s CPU    596.49s WALL (     429 calls)
     fft          :      1.03s CPU      1.16s WALL (     132 calls)
     ffts         :      0.08s CPU      0.08s WALL (      11 calls)
     fftw         :    796.55s CPU    798.94s WALL (  269628 calls)

     Parallel routines

     PWSCF        :      1h10m CPU      1h11m WALL


   This run was terminated on:   0:42:30  21Oct2022            

=------------------------------------------------------------------------------=
   JOB DONE.
=------------------------------------------------------------------------------=
