
     Program PWSCF v.7.1 starts on 25Oct2022 at 20: 0:45 
        Git branch: HEAD
        Last git commit: 564a7b486665e8dd0223d6e514b84195d1a96c10
        Last git commit date: Tue Jun 14 16:16:48 2022 +0000
        Last git commit subject: Merge branch 'update_version_number' into 'develop

     This program is part of the open-source Quantum ESPRESSO suite
     for quantum simulation of materials; please cite
         "P. Giannozzi et al., J. Phys.:Condens. Matter 21 395502 (2009);
         "P. Giannozzi et al., J. Phys.:Condens. Matter 29 465901 (2017);
         "P. Giannozzi et al., J. Chem. Phys. 152 154105 (2020);
          URL http://www.quantum-espresso.org", 
     in publications or presentations arising from this work. More details at
     http://www.quantum-espresso.org/quote

     Parallel version (MPI & OpenMP), running on     128 processor cores
     Number of MPI processes:               128
     Threads/MPI process:                     1

     MPI processes distributed on     1 nodes
     1001423 MiB available memory on the printing compute node when the environment starts

     Reading input from scf.in

     Current dimensions of program PWSCF are:
     Max number of different atomic species (ntypx) = 10
     Max number of k-points (npk) =  40000
     Max angular momentum in pseudopotentials (lmaxx) =  4
     file N.pbe-n-kjpaw_psl.1.0.0.UPF: wavefunction(s)  2S renormalized
     file O.pbe-n-kjpaw_psl.1.0.0.UPF: wavefunction(s)  2S 2P renormalized
     file H.pbe-kjpaw_psl.1.0.0.UPF: wavefunction(s)  1S renormalized
     Message from routine setup:
     using ibrav=0 with symmetry is DISCOURAGED, use correct ibrav instead

     R & G space division:  proc/nbgrp/npool/nimage =     128
     Subspace diagonalization in iterative solution of the eigenvalue problem:
     one sub-group per band group will be used
     scalapack distributed-memory algorithm (size of sub-group: 10* 10 procs)


     Parallelization info
     --------------------
     sticks:   dense  smooth     PW     G-vecs:    dense   smooth      PW
     Min         635     635    160               109655   109655   13948
     Max         636     636    161               109660   109660   13955
     Sum       81311   81311  20563             14036177 14036177 1785661

     Using Slab Decomposition



     bravais-lattice index     =            0
     lattice parameter (alat)  =      75.7265  a.u.
     unit-cell volume          =  281543.9584 (a.u.)^3
     number of atoms/cell      =          515
     number of atomic types    =            4
     number of electrons       =      2056.00
     number of Kohn-Sham states=         1049
     kinetic-energy cutoff     =      51.4490  Ry
     charge density cutoff     =     205.7961  Ry
     scf convergence threshold =      1.0E-06
     mixing beta               =       0.7000
     number of iterations used =            8  plain     mixing
     Exchange-correlation= SLA  PW   PBX  PBC
                           (   1   4   3   4   0   0   0)

     celldm(1)=  75.726466  celldm(2)=   0.000000  celldm(3)=   0.000000
     celldm(4)=   0.000000  celldm(5)=   0.000000  celldm(6)=   0.000000

     crystal axes: (cart. coord. in units of alat)
               a(1) = (   1.000000   0.000000   0.000000 )  
               a(2) = (   0.000000   0.866026   0.000000 )  
               a(3) = (   0.000000   0.000000   0.748639 )  

     reciprocal axes: (cart. coord. in units 2 pi/alat)
               b(1) = (  1.000000  0.000000  0.000000 )  
               b(2) = (  0.000000  1.154700  0.000000 )  
               b(3) = (  0.000000  0.000000  1.335757 )  


     PseudoPot. # 1 for B  read from file:
     ./B.pbe-n-kjpaw_psl.1.0.0.UPF
     MD5 check sum: 8c825a5969375aca5c2c6ad5945b3059
     Pseudo is Projector augmented-wave + core cor, Zval =  3.0
     Generated using &quot;atomic&quot; code by A. Dal Corso  v.6.3
     Shape of augmentation charge: PSQ
     Using radial grid of 1059 points,  4 beta functions with: 
                l(1) =   0
                l(2) =   0
                l(3) =   1
                l(4) =   1
     Q(r) pseudized with 0 coefficients 


     PseudoPot. # 2 for N  read from file:
     ./N.pbe-n-kjpaw_psl.1.0.0.UPF
     MD5 check sum: 14c48229446f9f2d411169a3abcbc3fa
     Pseudo is Projector augmented-wave + core cor, Zval =  5.0
     Generated using &quot;atomic&quot; code by A. Dal Corso  v.6.3
     Shape of augmentation charge: PSQ
     Using radial grid of 1085 points,  4 beta functions with: 
                l(1) =   0
                l(2) =   0
                l(3) =   1
                l(4) =   1
     Q(r) pseudized with 0 coefficients 


     PseudoPot. # 3 for O  read from file:
     ./O.pbe-n-kjpaw_psl.1.0.0.UPF
     MD5 check sum: e99d9cef9b487d1ca56f5b95ecd0fd7a
     Pseudo is Projector augmented-wave + core cor, Zval =  6.0
     Generated using &quot;atomic&quot; code by A. Dal Corso  v.6.3
     Shape of augmentation charge: PSQ
     Using radial grid of 1095 points,  4 beta functions with: 
                l(1) =   0
                l(2) =   0
                l(3) =   1
                l(4) =   1
     Q(r) pseudized with 0 coefficients 


     PseudoPot. # 4 for H  read from file:
     ./H.pbe-kjpaw_psl.1.0.0.UPF
     MD5 check sum: d81a744832360e4a8af0b0b5b123bc2a
     Pseudo is Projector augmented-wave, Zval =  1.0
     Generated using &quot;atomic&quot; code by A. Dal Corso  v.6.3MaX
     Shape of augmentation charge: PSQ
     Using radial grid of  929 points,  2 beta functions with: 
                l(1) =   0
                l(2) =   0
     Q(r) pseudized with 0 coefficients 


     atomic species   valence    mass     pseudopotential
        B              3.00    10.81100     B ( 1.00)
        N              5.00    14.00670     N ( 1.00)
        O              6.00    15.99900     O ( 1.00)
        H              1.00     1.00784     H ( 1.00)

      2 Sym. Ops. (no inversion) found ( 1 have fractional translation)



   Cartesian axes

     site n.     atom                  positions (alat units)
         1           B   tau(   1) = (   0.9687500   0.0180422   0.1497278  )
         2           B   tau(   2) = (   0.9687500   0.1262954   0.1497278  )
         3           B   tau(   3) = (   0.9687500   0.2345486   0.1497278  )
         4           B   tau(   4) = (   0.9687500   0.3428018   0.1497278  )
         5           B   tau(   5) = (   0.9687500   0.4510550   0.1497278  )
         6           B   tau(   6) = (   0.9687500   0.5593082   0.1497278  )
         7           B   tau(   7) = (   0.9687500   0.6675614   0.1497278  )
         8           B   tau(   8) = (   0.9687500   0.7758146   0.1497278  )
         9           B   tau(   9) = (   0.0937500   0.0180422   0.1497278  )
        10           B   tau(  10) = (   0.0937500   0.1262954   0.1497278  )
        11           B   tau(  11) = (   0.0937500   0.2345486   0.1497278  )
        12           B   tau(  12) = (   0.0937500   0.3428018   0.1497278  )
        13           B   tau(  13) = (   0.0937500   0.4510550   0.1497278  )
        14           B   tau(  14) = (   0.0937500   0.5593082   0.1497278  )
        15           B   tau(  15) = (   0.0937500   0.6675614   0.1497278  )
        16           B   tau(  16) = (   0.0937500   0.7758146   0.1497278  )
        17           B   tau(  17) = (   0.2187500   0.0180422   0.1497278  )
        18           B   tau(  18) = (   0.2187500   0.1262954   0.1497278  )
        19           B   tau(  19) = (   0.2187500   0.2345486   0.1497278  )
        20           B   tau(  20) = (   0.2187500   0.3428018   0.1497278  )
        21           B   tau(  21) = (   0.2187500   0.4510550   0.1497278  )
        22           B   tau(  22) = (   0.2187500   0.5593082   0.1497278  )
        23           B   tau(  23) = (   0.2187500   0.6675614   0.1497278  )
        24           B   tau(  24) = (   0.2187500   0.7758146   0.1497278  )
        25           B   tau(  25) = (   0.3437500   0.0180422   0.1497278  )
        26           B   tau(  26) = (   0.3437500   0.1262954   0.1497278  )
        27           B   tau(  27) = (   0.3437500   0.2345486   0.1497278  )
        28           B   tau(  28) = (   0.3437500   0.3428018   0.1497278  )
        29           B   tau(  29) = (   0.3437500   0.4510550   0.1497278  )
        30           B   tau(  30) = (   0.3437500   0.5593082   0.1497278  )
        31           B   tau(  31) = (   0.3437500   0.6675614   0.1497278  )
        32           B   tau(  32) = (   0.3437500   0.7758146   0.1497278  )
        33           B   tau(  33) = (   0.4687500   0.0180422   0.1497278  )
        34           B   tau(  34) = (   0.4687500   0.1262954   0.1497278  )
        35           B   tau(  35) = (   0.4687500   0.2345486   0.1497278  )
        36           B   tau(  36) = (   0.4687500   0.3428018   0.1497278  )
        37           B   tau(  37) = (   0.4687500   0.4510550   0.1497278  )
        38           B   tau(  38) = (   0.4687500   0.5593082   0.1497278  )
        39           B   tau(  39) = (   0.4687500   0.6675614   0.1497278  )
        40           B   tau(  40) = (   0.4687500   0.7758146   0.1497278  )
        41           B   tau(  41) = (   0.5937500   0.0180422   0.1497278  )
        42           B   tau(  42) = (   0.5937500   0.1262954   0.1497278  )
        43           B   tau(  43) = (   0.5937500   0.2345486   0.1497278  )
        44           B   tau(  44) = (   0.5937500   0.3428018   0.1497278  )
        45           B   tau(  45) = (   0.5937500   0.4510550   0.1497278  )
        46           B   tau(  46) = (   0.5937500   0.5593082   0.1497278  )
        47           B   tau(  47) = (   0.5937500   0.6675614   0.1497278  )
        48           B   tau(  48) = (   0.5937500   0.7758146   0.1497278  )
        49           B   tau(  49) = (   0.7187500   0.0180422   0.1497278  )
        50           B   tau(  50) = (   0.7187500   0.1262954   0.1497278  )
        51           B   tau(  51) = (   0.7187500   0.2345486   0.1497278  )
        52           B   tau(  52) = (   0.7187500   0.3428018   0.1497278  )
        53           B   tau(  53) = (   0.7187500   0.4510550   0.1497278  )
        54           B   tau(  54) = (   0.7187500   0.5593082   0.1497278  )
        55           B   tau(  55) = (   0.7187500   0.6675614   0.1497278  )
        56           B   tau(  56) = (   0.7187500   0.7758146   0.1497278  )
        57           B   tau(  57) = (   0.8437500   0.0180422   0.1497278  )
        58           B   tau(  58) = (   0.8437500   0.1262954   0.1497278  )
        59           B   tau(  59) = (   0.8437500   0.2345486   0.1497278  )
        60           B   tau(  60) = (   0.8437500   0.3428018   0.1497278  )
        61           B   tau(  61) = (   0.8437500   0.4510550   0.1497278  )
        62           B   tau(  62) = (   0.8437500   0.5593082   0.1497278  )
        63           B   tau(  63) = (   0.8437500   0.6675614   0.1497278  )
        64           B   tau(  64) = (   0.8437500   0.7758146   0.1497278  )
        65           B   tau(  65) = (   0.0312500   0.0180422   0.1497278  )
        66           B   tau(  66) = (   0.0312500   0.1262954   0.1497278  )
        67           B   tau(  67) = (   0.0312500   0.2345486   0.1497278  )
        68           B   tau(  68) = (   0.0312500   0.3428018   0.1497278  )
        69           B   tau(  69) = (   0.0312500   0.4510550   0.1497278  )
        70           B   tau(  70) = (   0.0312500   0.5593082   0.1497278  )
        71           B   tau(  71) = (   0.0312500   0.6675614   0.1497278  )
        72           B   tau(  72) = (   0.0312500   0.7758146   0.1497278  )
        73           B   tau(  73) = (   0.1562500   0.0180422   0.1497278  )
        74           B   tau(  74) = (   0.1562500   0.1262954   0.1497278  )
        75           B   tau(  75) = (   0.1562500   0.2345486   0.1497278  )
        76           B   tau(  76) = (   0.1562500   0.3428018   0.1497278  )
        77           B   tau(  77) = (   0.1562500   0.4510550   0.1497278  )
        78           B   tau(  78) = (   0.1562500   0.5593082   0.1497278  )
        79           B   tau(  79) = (   0.1562500   0.6675614   0.1497278  )
        80           B   tau(  80) = (   0.1562500   0.7758146   0.1497278  )
        81           B   tau(  81) = (   0.2812500   0.0180422   0.1497278  )
        82           B   tau(  82) = (   0.2812500   0.1262954   0.1497278  )
        83           B   tau(  83) = (   0.2812500   0.2345486   0.1497278  )
        84           B   tau(  84) = (   0.2812500   0.3428018   0.1497278  )
        85           B   tau(  85) = (   0.2812500   0.4510550   0.1497278  )
        86           B   tau(  86) = (   0.2812500   0.5593082   0.1497278  )
        87           B   tau(  87) = (   0.2812500   0.6675614   0.1497278  )
        88           B   tau(  88) = (   0.2812500   0.7758146   0.1497278  )
        89           B   tau(  89) = (   0.4062500   0.0180422   0.1497278  )
        90           B   tau(  90) = (   0.4062500   0.1262954   0.1497278  )
        91           B   tau(  91) = (   0.4062500   0.2345486   0.1497278  )
        92           B   tau(  92) = (   0.4062500   0.3428018   0.1497278  )
        93           B   tau(  93) = (   0.4062500   0.4510550   0.1497278  )
        94           B   tau(  94) = (   0.4062500   0.5593082   0.1497278  )
        95           B   tau(  95) = (   0.4062500   0.6675614   0.1497278  )
        96           B   tau(  96) = (   0.4062500   0.7758146   0.1497278  )
        97           B   tau(  97) = (   0.5312500   0.0180422   0.1497278  )
        98           B   tau(  98) = (   0.5312500   0.1262954   0.1497278  )
        99           B   tau(  99) = (   0.5312500   0.2345486   0.1497278  )
       100           B   tau( 100) = (   0.5312500   0.3428018   0.1497278  )
       101           B   tau( 101) = (   0.5312500   0.4510550   0.1497278  )
       102           B   tau( 102) = (   0.5312500   0.5593082   0.1497278  )
       103           B   tau( 103) = (   0.5312500   0.6675614   0.1497278  )
       104           B   tau( 104) = (   0.5312500   0.7758146   0.1497278  )
       105           B   tau( 105) = (   0.6562500   0.0180422   0.1497278  )
       106           B   tau( 106) = (   0.6562500   0.1262954   0.1497278  )
       107           B   tau( 107) = (   0.6562500   0.2345486   0.1497278  )
       108           B   tau( 108) = (   0.6562500   0.3428018   0.1497278  )
       109           B   tau( 109) = (   0.6562500   0.4510550   0.1497278  )
       110           B   tau( 110) = (   0.6562500   0.5593082   0.1497278  )
       111           B   tau( 111) = (   0.6562500   0.6675614   0.1497278  )
       112           B   tau( 112) = (   0.6562500   0.7758146   0.1497278  )
       113           B   tau( 113) = (   0.7812500   0.0180422   0.1497278  )
       114           B   tau( 114) = (   0.7812500   0.1262954   0.1497278  )
       115           B   tau( 115) = (   0.7812500   0.2345486   0.1497278  )
       116           B   tau( 116) = (   0.7812500   0.3428018   0.1497278  )
       117           B   tau( 117) = (   0.7812500   0.4510550   0.1497278  )
       118           B   tau( 118) = (   0.7812500   0.5593082   0.1497278  )
       119           B   tau( 119) = (   0.7812500   0.6675614   0.1497278  )
       120           B   tau( 120) = (   0.7812500   0.7758146   0.1497278  )
       121           B   tau( 121) = (   0.9062500   0.0180422   0.1497278  )
       122           B   tau( 122) = (   0.9062500   0.1262954   0.1497278  )
       123           B   tau( 123) = (   0.9062500   0.2345486   0.1497278  )
       124           B   tau( 124) = (   0.9062500   0.3428018   0.1497278  )
       125           B   tau( 125) = (   0.9062500   0.4510550   0.1497278  )
       126           B   tau( 126) = (   0.9062500   0.5593082   0.1497278  )
       127           B   tau( 127) = (   0.9062500   0.6675614   0.1497278  )
       128           B   tau( 128) = (   0.9062500   0.7758146   0.1497278  )
       129           B   tau( 129) = (   0.0000000   0.8299412   0.1497278  )
       130           B   tau( 130) = (   0.0000000   0.0721688   0.1497278  )
       131           B   tau( 131) = (   0.0000000   0.1804220   0.1497278  )
       132           B   tau( 132) = (   0.0000000   0.2886752   0.1497278  )
       133           B   tau( 133) = (   0.0000000   0.3969284   0.1497278  )
       134           B   tau( 134) = (   0.0000000   0.5051816   0.1497278  )
       135           B   tau( 135) = (   0.0000000   0.6134348   0.1497278  )
       136           B   tau( 136) = (   0.0000000   0.7216880   0.1497278  )
       137           B   tau( 137) = (   0.1250000   0.8299412   0.1497278  )
       138           B   tau( 138) = (   0.1250000   0.0721688   0.1497278  )
       139           B   tau( 139) = (   0.1250000   0.1804220   0.1497278  )
       140           B   tau( 140) = (   0.1250000   0.2886752   0.1497278  )
       141           B   tau( 141) = (   0.1250000   0.3969284   0.1497278  )
       142           B   tau( 142) = (   0.1250000   0.5051816   0.1497278  )
       143           B   tau( 143) = (   0.1250000   0.6134348   0.1497278  )
       144           B   tau( 144) = (   0.1250000   0.7216880   0.1497278  )
       145           B   tau( 145) = (   0.2500000   0.8299412   0.1497278  )
       146           B   tau( 146) = (   0.2500000   0.0721688   0.1497278  )
       147           B   tau( 147) = (   0.2500000   0.1804220   0.1497278  )
       148           B   tau( 148) = (   0.2500000   0.2886752   0.1497278  )
       149           B   tau( 149) = (   0.2500000   0.3969284   0.1497278  )
       150           B   tau( 150) = (   0.2500000   0.5051816   0.1497278  )
       151           B   tau( 151) = (   0.2500000   0.6134348   0.1497278  )
       152           B   tau( 152) = (   0.2500000   0.7216880   0.1497278  )
       153           B   tau( 153) = (   0.3750000   0.8299412   0.1497278  )
       154           B   tau( 154) = (   0.3750000   0.0721688   0.1497278  )
       155           B   tau( 155) = (   0.3750000   0.1804220   0.1497278  )
       156           B   tau( 156) = (   0.3750000   0.2886752   0.1497278  )
       157           B   tau( 157) = (   0.3750000   0.3969284   0.1497278  )
       158           B   tau( 158) = (   0.3750000   0.5051816   0.1497278  )
       159           B   tau( 159) = (   0.3750000   0.6134348   0.1497278  )
       160           B   tau( 160) = (   0.3750000   0.7216880   0.1497278  )
       161           B   tau( 161) = (   0.5000000   0.8299412   0.1497278  )
       162           B   tau( 162) = (   0.5000000   0.0721688   0.1497278  )
       163           B   tau( 163) = (   0.5000000   0.1804220   0.1497278  )
       164           B   tau( 164) = (   0.5000000   0.2886752   0.1497278  )
       165           B   tau( 165) = (   0.5000000   0.3969284   0.1497278  )
       166           B   tau( 166) = (   0.5000000   0.5051816   0.1497278  )
       167           B   tau( 167) = (   0.5000000   0.6134348   0.1497278  )
       168           B   tau( 168) = (   0.5000000   0.7216880   0.1497278  )
       169           B   tau( 169) = (   0.6250000   0.8299412   0.1497278  )
       170           B   tau( 170) = (   0.6250000   0.0721688   0.1497278  )
       171           B   tau( 171) = (   0.6250000   0.1804220   0.1497278  )
       172           B   tau( 172) = (   0.6250000   0.2886752   0.1497278  )
       173           B   tau( 173) = (   0.6250000   0.3969284   0.1497278  )
       174           B   tau( 174) = (   0.6250000   0.5051816   0.1497278  )
       175           B   tau( 175) = (   0.6250000   0.6134348   0.1497278  )
       176           B   tau( 176) = (   0.6250000   0.7216880   0.1497278  )
       177           B   tau( 177) = (   0.7500000   0.8299412   0.1497278  )
       178           B   tau( 178) = (   0.7500000   0.0721688   0.1497278  )
       179           B   tau( 179) = (   0.7500000   0.1804220   0.1497278  )
       180           B   tau( 180) = (   0.7500000   0.2886752   0.1497278  )
       181           B   tau( 181) = (   0.7500000   0.3969284   0.1497278  )
       182           B   tau( 182) = (   0.7500000   0.5051816   0.1497278  )
       183           B   tau( 183) = (   0.7500000   0.6134348   0.1497278  )
       184           B   tau( 184) = (   0.7500000   0.7216880   0.1497278  )
       185           B   tau( 185) = (   0.8750000   0.8299412   0.1497278  )
       186           B   tau( 186) = (   0.8750000   0.0721688   0.1497278  )
       187           B   tau( 187) = (   0.8750000   0.1804220   0.1497278  )
       188           B   tau( 188) = (   0.8750000   0.2886752   0.1497278  )
       189           B   tau( 189) = (   0.8750000   0.3969284   0.1497278  )
       190           B   tau( 190) = (   0.8750000   0.5051816   0.1497278  )
       191           B   tau( 191) = (   0.8750000   0.6134348   0.1497278  )
       192           B   tau( 192) = (   0.8750000   0.7216880   0.1497278  )
       193           B   tau( 193) = (   0.0625000   0.8299412   0.1497278  )
       194           B   tau( 194) = (   0.0625000   0.0721688   0.1497278  )
       195           B   tau( 195) = (   0.0625000   0.1804220   0.1497278  )
       196           B   tau( 196) = (   0.0625000   0.2886752   0.1497278  )
       197           B   tau( 197) = (   0.0625000   0.3969284   0.1497278  )
       198           B   tau( 198) = (   0.0625000   0.5051816   0.1497278  )
       199           B   tau( 199) = (   0.0625000   0.6134348   0.1497278  )
       200           B   tau( 200) = (   0.0625000   0.7216880   0.1497278  )
       201           B   tau( 201) = (   0.1875000   0.8299412   0.1497278  )
       202           B   tau( 202) = (   0.1875000   0.0721688   0.1497278  )
       203           B   tau( 203) = (   0.1875000   0.1804220   0.1497278  )
       204           B   tau( 204) = (   0.1875000   0.2886752   0.1497278  )
       205           B   tau( 205) = (   0.1875000   0.3969284   0.1497278  )
       206           B   tau( 206) = (   0.1875000   0.5051816   0.1497278  )
       207           B   tau( 207) = (   0.1875000   0.6134348   0.1497278  )
       208           B   tau( 208) = (   0.1875000   0.7216880   0.1497278  )
       209           B   tau( 209) = (   0.3125000   0.8299412   0.1497278  )
       210           B   tau( 210) = (   0.3125000   0.0721688   0.1497278  )
       211           B   tau( 211) = (   0.3125000   0.1804220   0.1497278  )
       212           B   tau( 212) = (   0.3125000   0.2886752   0.1497278  )
       213           B   tau( 213) = (   0.3125000   0.3969284   0.1497278  )
       214           B   tau( 214) = (   0.3125000   0.5051816   0.1497278  )
       215           B   tau( 215) = (   0.3125000   0.6134348   0.1497278  )
       216           B   tau( 216) = (   0.3125000   0.7216880   0.1497278  )
       217           B   tau( 217) = (   0.4375000   0.8299412   0.1497278  )
       218           B   tau( 218) = (   0.4375000   0.0721688   0.1497278  )
       219           B   tau( 219) = (   0.4375000   0.1804220   0.1497278  )
       220           B   tau( 220) = (   0.4375000   0.2886752   0.1497278  )
       221           B   tau( 221) = (   0.4375000   0.3969284   0.1497278  )
       222           B   tau( 222) = (   0.4375000   0.5051816   0.1497278  )
       223           B   tau( 223) = (   0.4375000   0.6134348   0.1497278  )
       224           B   tau( 224) = (   0.4375000   0.7216880   0.1497278  )
       225           B   tau( 225) = (   0.5625000   0.8299412   0.1497278  )
       226           B   tau( 226) = (   0.5625000   0.0721688   0.1497278  )
       227           B   tau( 227) = (   0.5625000   0.1804220   0.1497278  )
       228           B   tau( 228) = (   0.5625000   0.2886752   0.1497278  )
       229           B   tau( 229) = (   0.5625000   0.3969284   0.1497278  )
       230           B   tau( 230) = (   0.5625000   0.5051816   0.1497278  )
       231           B   tau( 231) = (   0.5625000   0.6134348   0.1497278  )
       232           B   tau( 232) = (   0.5625000   0.7216880   0.1497278  )
       233           B   tau( 233) = (   0.6875000   0.8299412   0.1497278  )
       234           B   tau( 234) = (   0.6875000   0.0721688   0.1497278  )
       235           B   tau( 235) = (   0.6875000   0.1804220   0.1497278  )
       236           B   tau( 236) = (   0.6875000   0.2886752   0.1497278  )
       237           B   tau( 237) = (   0.6875000   0.3969284   0.1497278  )
       238           B   tau( 238) = (   0.6875000   0.5051816   0.1497278  )
       239           B   tau( 239) = (   0.6875000   0.6134348   0.1497278  )
       240           B   tau( 240) = (   0.6875000   0.7216880   0.1497278  )
       241           B   tau( 241) = (   0.8125000   0.8299412   0.1497278  )
       242           B   tau( 242) = (   0.8125000   0.0721688   0.1497278  )
       243           B   tau( 243) = (   0.8125000   0.1804220   0.1497278  )
       244           B   tau( 244) = (   0.8125000   0.2886752   0.1497278  )
       245           B   tau( 245) = (   0.8125000   0.3969284   0.1497278  )
       246           B   tau( 246) = (   0.8125000   0.5051816   0.1497278  )
       247           B   tau( 247) = (   0.8125000   0.6134348   0.1497278  )
       248           B   tau( 248) = (   0.8125000   0.7216880   0.1497278  )
       249           B   tau( 249) = (   0.9375000   0.8299412   0.1497278  )
       250           B   tau( 250) = (   0.9375000   0.0721688   0.1497278  )
       251           B   tau( 251) = (   0.9375000   0.1804220   0.1497278  )
       252           B   tau( 252) = (   0.9375000   0.2886752   0.1497278  )
       253           B   tau( 253) = (   0.9375000   0.3969284   0.1497278  )
       254           B   tau( 254) = (   0.9375000   0.5051816   0.1497278  )
       255           B   tau( 255) = (   0.9375000   0.6134348   0.1497278  )
       256           B   tau( 256) = (   0.9375000   0.7216880   0.1497278  )
       257           N   tau( 257) = (   0.9687500   0.8479833   0.1497278  )
       258           N   tau( 258) = (   0.9687500   0.0902110   0.1497278  )
       259           N   tau( 259) = (   0.9687500   0.1984642   0.1497278  )
       260           N   tau( 260) = (   0.9687500   0.3067174   0.1497278  )
       261           N   tau( 261) = (   0.9687500   0.4149705   0.1497278  )
       262           N   tau( 262) = (   0.9687500   0.5232237   0.1497278  )
       263           N   tau( 263) = (   0.9687500   0.6314769   0.1497278  )
       264           N   tau( 264) = (   0.9687500   0.7397301   0.1497278  )
       265           N   tau( 265) = (   0.0937500   0.8479833   0.1497278  )
       266           N   tau( 266) = (   0.0937500   0.0902110   0.1497278  )
       267           N   tau( 267) = (   0.0937500   0.1984642   0.1497278  )
       268           N   tau( 268) = (   0.0937500   0.3067174   0.1497278  )
       269           N   tau( 269) = (   0.0937500   0.4149705   0.1497278  )
       270           N   tau( 270) = (   0.0937500   0.5232237   0.1497278  )
       271           N   tau( 271) = (   0.0937500   0.6314769   0.1497278  )
       272           N   tau( 272) = (   0.0937500   0.7397301   0.1497278  )
       273           N   tau( 273) = (   0.2187500   0.8479833   0.1497278  )
       274           N   tau( 274) = (   0.2187500   0.0902110   0.1497278  )
       275           N   tau( 275) = (   0.2187500   0.1984642   0.1497278  )
       276           N   tau( 276) = (   0.2187500   0.3067174   0.1497278  )
       277           N   tau( 277) = (   0.2187500   0.4149705   0.1497278  )
       278           N   tau( 278) = (   0.2187500   0.5232237   0.1497278  )
       279           N   tau( 279) = (   0.2187500   0.6314769   0.1497278  )
       280           N   tau( 280) = (   0.2187500   0.7397301   0.1497278  )
       281           N   tau( 281) = (   0.3437500   0.8479833   0.1497278  )
       282           N   tau( 282) = (   0.3437500   0.0902110   0.1497278  )
       283           N   tau( 283) = (   0.3437500   0.1984642   0.1497278  )
       284           N   tau( 284) = (   0.3437500   0.3067174   0.1497278  )
       285           N   tau( 285) = (   0.3437500   0.4149705   0.1497278  )
       286           N   tau( 286) = (   0.3437500   0.5232237   0.1497278  )
       287           N   tau( 287) = (   0.3437500   0.6314769   0.1497278  )
       288           N   tau( 288) = (   0.3437500   0.7397301   0.1497278  )
       289           N   tau( 289) = (   0.4687500   0.8479833   0.1497278  )
       290           N   tau( 290) = (   0.4687500   0.0902110   0.1497278  )
       291           N   tau( 291) = (   0.4687500   0.1984642   0.1497278  )
       292           N   tau( 292) = (   0.4687500   0.3067174   0.1497278  )
       293           N   tau( 293) = (   0.4687500   0.4149705   0.1497278  )
       294           N   tau( 294) = (   0.4687500   0.5232237   0.1497278  )
       295           N   tau( 295) = (   0.4687500   0.6314769   0.1497278  )
       296           N   tau( 296) = (   0.4687500   0.7397301   0.1497278  )
       297           N   tau( 297) = (   0.5937500   0.8479833   0.1497278  )
       298           N   tau( 298) = (   0.5937500   0.0902110   0.1497278  )
       299           N   tau( 299) = (   0.5937500   0.1984642   0.1497278  )
       300           N   tau( 300) = (   0.5937500   0.3067174   0.1497278  )
       301           N   tau( 301) = (   0.5937500   0.4149705   0.1497278  )
       302           N   tau( 302) = (   0.5937500   0.5232237   0.1497278  )
       303           N   tau( 303) = (   0.5937500   0.6314769   0.1497278  )
       304           N   tau( 304) = (   0.5937500   0.7397301   0.1497278  )
       305           N   tau( 305) = (   0.7187500   0.8479833   0.1497278  )
       306           N   tau( 306) = (   0.7187500   0.0902110   0.1497278  )
       307           N   tau( 307) = (   0.7187500   0.1984642   0.1497278  )
       308           N   tau( 308) = (   0.7187500   0.3067174   0.1497278  )
       309           N   tau( 309) = (   0.7187500   0.4149705   0.1497278  )
       310           N   tau( 310) = (   0.7187500   0.5232237   0.1497278  )
       311           N   tau( 311) = (   0.7187500   0.6314769   0.1497278  )
       312           N   tau( 312) = (   0.7187500   0.7397301   0.1497278  )
       313           N   tau( 313) = (   0.8437500   0.8479833   0.1497278  )
       314           N   tau( 314) = (   0.8437500   0.0902110   0.1497278  )
       315           N   tau( 315) = (   0.8437500   0.1984642   0.1497278  )
       316           N   tau( 316) = (   0.8437500   0.3067174   0.1497278  )
       317           N   tau( 317) = (   0.8437500   0.4149705   0.1497278  )
       318           N   tau( 318) = (   0.8437500   0.5232237   0.1497278  )
       319           N   tau( 319) = (   0.8437500   0.6314769   0.1497278  )
       320           N   tau( 320) = (   0.8437500   0.7397301   0.1497278  )
       321           N   tau( 321) = (   0.0312500   0.8479833   0.1497278  )
       322           N   tau( 322) = (   0.0312500   0.0902110   0.1497278  )
       323           N   tau( 323) = (   0.0312500   0.1984642   0.1497278  )
       324           N   tau( 324) = (   0.0312500   0.3067174   0.1497278  )
       325           N   tau( 325) = (   0.0312500   0.4149705   0.1497278  )
       326           N   tau( 326) = (   0.0312500   0.5232237   0.1497278  )
       327           N   tau( 327) = (   0.0312500   0.6314769   0.1497278  )
       328           N   tau( 328) = (   0.0312500   0.7397301   0.1497278  )
       329           N   tau( 329) = (   0.1562500   0.8479833   0.1497278  )
       330           N   tau( 330) = (   0.1562500   0.0902110   0.1497278  )
       331           N   tau( 331) = (   0.1562500   0.1984642   0.1497278  )
       332           N   tau( 332) = (   0.1562500   0.3067174   0.1497278  )
       333           N   tau( 333) = (   0.1562500   0.4149705   0.1497278  )
       334           N   tau( 334) = (   0.1562500   0.5232237   0.1497278  )
       335           N   tau( 335) = (   0.1562500   0.6314769   0.1497278  )
       336           N   tau( 336) = (   0.1562500   0.7397301   0.1497278  )
       337           N   tau( 337) = (   0.2812500   0.8479833   0.1497278  )
       338           N   tau( 338) = (   0.2812500   0.0902110   0.1497278  )
       339           N   tau( 339) = (   0.2812500   0.1984642   0.1497278  )
       340           N   tau( 340) = (   0.2812500   0.3067174   0.1497278  )
       341           N   tau( 341) = (   0.2812500   0.4149705   0.1497278  )
       342           N   tau( 342) = (   0.2812500   0.5232237   0.1497278  )
       343           N   tau( 343) = (   0.2812500   0.6314769   0.1497278  )
       344           N   tau( 344) = (   0.2812500   0.7397301   0.1497278  )
       345           N   tau( 345) = (   0.4062500   0.8479833   0.1497278  )
       346           N   tau( 346) = (   0.4062500   0.0902110   0.1497278  )
       347           N   tau( 347) = (   0.4062500   0.1984642   0.1497278  )
       348           N   tau( 348) = (   0.4062500   0.3067174   0.1497278  )
       349           N   tau( 349) = (   0.4062500   0.4149705   0.1497278  )
       350           N   tau( 350) = (   0.4062500   0.5232237   0.1497278  )
       351           N   tau( 351) = (   0.4062500   0.6314769   0.1497278  )
       352           N   tau( 352) = (   0.4062500   0.7397301   0.1497278  )
       353           N   tau( 353) = (   0.5312500   0.8479833   0.1497278  )
       354           N   tau( 354) = (   0.5312500   0.0902110   0.1497278  )
       355           N   tau( 355) = (   0.5312500   0.1984642   0.1497278  )
       356           N   tau( 356) = (   0.5312500   0.3067174   0.1497278  )
       357           N   tau( 357) = (   0.5312500   0.4149705   0.1497278  )
       358           N   tau( 358) = (   0.5312500   0.5232237   0.1497278  )
       359           N   tau( 359) = (   0.5312500   0.6314769   0.1497278  )
       360           N   tau( 360) = (   0.5312500   0.7397301   0.1497278  )
       361           N   tau( 361) = (   0.6562500   0.8479833   0.1497278  )
       362           N   tau( 362) = (   0.6562500   0.0902110   0.1497278  )
       363           N   tau( 363) = (   0.6562500   0.1984642   0.1497278  )
       364           N   tau( 364) = (   0.6562500   0.3067174   0.1497278  )
       365           N   tau( 365) = (   0.6562500   0.4149705   0.1497278  )
       366           N   tau( 366) = (   0.6562500   0.5232237   0.1497278  )
       367           N   tau( 367) = (   0.6562500   0.6314769   0.1497278  )
       368           N   tau( 368) = (   0.6562500   0.7397301   0.1497278  )
       369           N   tau( 369) = (   0.7812500   0.8479833   0.1497278  )
       370           N   tau( 370) = (   0.7812500   0.0902110   0.1497278  )
       371           N   tau( 371) = (   0.7812500   0.1984642   0.1497278  )
       372           N   tau( 372) = (   0.7812500   0.3067174   0.1497278  )
       373           N   tau( 373) = (   0.7812500   0.4149705   0.1497278  )
       374           N   tau( 374) = (   0.7812500   0.5232237   0.1497278  )
       375           N   tau( 375) = (   0.7812500   0.6314769   0.1497278  )
       376           N   tau( 376) = (   0.7812500   0.7397301   0.1497278  )
       377           N   tau( 377) = (   0.9062500   0.8479833   0.1497278  )
       378           N   tau( 378) = (   0.9062500   0.0902110   0.1497278  )
       379           N   tau( 379) = (   0.9062500   0.1984642   0.1497278  )
       380           N   tau( 380) = (   0.9062500   0.3067174   0.1497278  )
       381           N   tau( 381) = (   0.9062500   0.4149705   0.1497278  )
       382           N   tau( 382) = (   0.9062500   0.5232237   0.1497278  )
       383           N   tau( 383) = (   0.9062500   0.6314769   0.1497278  )
       384           N   tau( 384) = (   0.9062500   0.7397301   0.1497278  )
       385           N   tau( 385) = (   0.0000000   0.0360844   0.1497278  )
       386           N   tau( 386) = (   0.0000000   0.1443376   0.1497278  )
       387           N   tau( 387) = (   0.0000000   0.2525908   0.1497278  )
       388           N   tau( 388) = (   0.0000000   0.3608439   0.1497278  )
       389           N   tau( 389) = (   0.0000000   0.4690971   0.1497278  )
       390           N   tau( 390) = (   0.0000000   0.5773503   0.1497278  )
       391           N   tau( 391) = (   0.0000000   0.6856035   0.1497278  )
       392           N   tau( 392) = (   0.0000000   0.7938567   0.1497278  )
       393           N   tau( 393) = (   0.1250000   0.0360844   0.1497278  )
       394           N   tau( 394) = (   0.1250000   0.1443376   0.1497278  )
       395           N   tau( 395) = (   0.1250000   0.2525908   0.1497278  )
       396           N   tau( 396) = (   0.1250000   0.3608439   0.1497278  )
       397           N   tau( 397) = (   0.1250000   0.4690971   0.1497278  )
       398           N   tau( 398) = (   0.1250000   0.5773503   0.1497278  )
       399           N   tau( 399) = (   0.1250000   0.6856035   0.1497278  )
       400           N   tau( 400) = (   0.1250000   0.7938567   0.1497278  )
       401           N   tau( 401) = (   0.2500000   0.0360844   0.1497278  )
       402           N   tau( 402) = (   0.2500000   0.1443376   0.1497278  )
       403           N   tau( 403) = (   0.2500000   0.2525908   0.1497278  )
       404           N   tau( 404) = (   0.2500000   0.3608439   0.1497278  )
       405           N   tau( 405) = (   0.2500000   0.4690971   0.1497278  )
       406           N   tau( 406) = (   0.2500000   0.5773503   0.1497278  )
       407           N   tau( 407) = (   0.2500000   0.6856035   0.1497278  )
       408           N   tau( 408) = (   0.2500000   0.7938567   0.1497278  )
       409           N   tau( 409) = (   0.3750000   0.0360844   0.1497278  )
       410           N   tau( 410) = (   0.3750000   0.1443376   0.1497278  )
       411           N   tau( 411) = (   0.3750000   0.2525908   0.1497278  )
       412           N   tau( 412) = (   0.3750000   0.3608439   0.1497278  )
       413           N   tau( 413) = (   0.3750000   0.4690971   0.1497278  )
       414           N   tau( 414) = (   0.3750000   0.5773503   0.1497278  )
       415           N   tau( 415) = (   0.3750000   0.6856035   0.1497278  )
       416           N   tau( 416) = (   0.3750000   0.7938567   0.1497278  )
       417           N   tau( 417) = (   0.5000000   0.0360844   0.1497278  )
       418           N   tau( 418) = (   0.5000000   0.1443376   0.1497278  )
       419           N   tau( 419) = (   0.5000000   0.2525908   0.1497278  )
       420           N   tau( 420) = (   0.5000000   0.3608439   0.1497278  )
       421           N   tau( 421) = (   0.5000000   0.4690971   0.1497278  )
       422           N   tau( 422) = (   0.5000000   0.5773503   0.1497278  )
       423           N   tau( 423) = (   0.5000000   0.6856035   0.1497278  )
       424           N   tau( 424) = (   0.5000000   0.7938567   0.1497278  )
       425           N   tau( 425) = (   0.6250000   0.0360844   0.1497278  )
       426           N   tau( 426) = (   0.6250000   0.1443376   0.1497278  )
       427           N   tau( 427) = (   0.6250000   0.2525908   0.1497278  )
       428           N   tau( 428) = (   0.6250000   0.3608439   0.1497278  )
       429           N   tau( 429) = (   0.6250000   0.4690971   0.1497278  )
       430           N   tau( 430) = (   0.6250000   0.5773503   0.1497278  )
       431           N   tau( 431) = (   0.6250000   0.6856035   0.1497278  )
       432           N   tau( 432) = (   0.6250000   0.7938567   0.1497278  )
       433           N   tau( 433) = (   0.7500000   0.0360844   0.1497278  )
       434           N   tau( 434) = (   0.7500000   0.1443376   0.1497278  )
       435           N   tau( 435) = (   0.7500000   0.2525908   0.1497278  )
       436           N   tau( 436) = (   0.7500000   0.3608439   0.1497278  )
       437           N   tau( 437) = (   0.7500000   0.4690971   0.1497278  )
       438           N   tau( 438) = (   0.7500000   0.5773503   0.1497278  )
       439           N   tau( 439) = (   0.7500000   0.6856035   0.1497278  )
       440           N   tau( 440) = (   0.7500000   0.7938567   0.1497278  )
       441           N   tau( 441) = (   0.8750000   0.0360844   0.1497278  )
       442           N   tau( 442) = (   0.8750000   0.1443376   0.1497278  )
       443           N   tau( 443) = (   0.8750000   0.2525908   0.1497278  )
       444           N   tau( 444) = (   0.8750000   0.3608439   0.1497278  )
       445           N   tau( 445) = (   0.8750000   0.4690971   0.1497278  )
       446           N   tau( 446) = (   0.8750000   0.5773503   0.1497278  )
       447           N   tau( 447) = (   0.8750000   0.6856035   0.1497278  )
       448           N   tau( 448) = (   0.8750000   0.7938567   0.1497278  )
       449           N   tau( 449) = (   0.0625000   0.0360844   0.1497278  )
       450           N   tau( 450) = (   0.0625000   0.1443376   0.1497278  )
       451           N   tau( 451) = (   0.0625000   0.2525908   0.1497278  )
       452           N   tau( 452) = (   0.0625000   0.3608439   0.1497278  )
       453           N   tau( 453) = (   0.0625000   0.4690971   0.1497278  )
       454           N   tau( 454) = (   0.0625000   0.5773503   0.1497278  )
       455           N   tau( 455) = (   0.0625000   0.6856035   0.1497278  )
       456           N   tau( 456) = (   0.0625000   0.7938567   0.1497278  )
       457           N   tau( 457) = (   0.1875000   0.0360844   0.1497278  )
       458           N   tau( 458) = (   0.1875000   0.1443376   0.1497278  )
       459           N   tau( 459) = (   0.1875000   0.2525908   0.1497278  )
       460           N   tau( 460) = (   0.1875000   0.3608439   0.1497278  )
       461           N   tau( 461) = (   0.1875000   0.4690971   0.1497278  )
       462           N   tau( 462) = (   0.1875000   0.5773503   0.1497278  )
       463           N   tau( 463) = (   0.1875000   0.6856035   0.1497278  )
       464           N   tau( 464) = (   0.1875000   0.7938567   0.1497278  )
       465           N   tau( 465) = (   0.3125000   0.0360844   0.1497278  )
       466           N   tau( 466) = (   0.3125000   0.1443376   0.1497278  )
       467           N   tau( 467) = (   0.3125000   0.2525908   0.1497278  )
       468           N   tau( 468) = (   0.3125000   0.3608439   0.1497278  )
       469           N   tau( 469) = (   0.3125000   0.4690971   0.1497278  )
       470           N   tau( 470) = (   0.3125000   0.5773503   0.1497278  )
       471           N   tau( 471) = (   0.3125000   0.6856035   0.1497278  )
       472           N   tau( 472) = (   0.3125000   0.7938567   0.1497278  )
       473           N   tau( 473) = (   0.4375000   0.0360844   0.1497278  )
       474           N   tau( 474) = (   0.4375000   0.1443376   0.1497278  )
       475           N   tau( 475) = (   0.4375000   0.2525908   0.1497278  )
       476           N   tau( 476) = (   0.4375000   0.3608439   0.1497278  )
       477           N   tau( 477) = (   0.4375000   0.4690971   0.1497278  )
       478           N   tau( 478) = (   0.4375000   0.5773503   0.1497278  )
       479           N   tau( 479) = (   0.4375000   0.6856035   0.1497278  )
       480           N   tau( 480) = (   0.4375000   0.7938567   0.1497278  )
       481           N   tau( 481) = (   0.5625000   0.0360844   0.1497278  )
       482           N   tau( 482) = (   0.5625000   0.1443376   0.1497278  )
       483           N   tau( 483) = (   0.5625000   0.2525908   0.1497278  )
       484           N   tau( 484) = (   0.5625000   0.3608439   0.1497278  )
       485           N   tau( 485) = (   0.5625000   0.4690971   0.1497278  )
       486           N   tau( 486) = (   0.5625000   0.5773503   0.1497278  )
       487           N   tau( 487) = (   0.5625000   0.6856035   0.1497278  )
       488           N   tau( 488) = (   0.5625000   0.7938567   0.1497278  )
       489           N   tau( 489) = (   0.6875000   0.0360844   0.1497278  )
       490           N   tau( 490) = (   0.6875000   0.1443376   0.1497278  )
       491           N   tau( 491) = (   0.6875000   0.2525908   0.1497278  )
       492           N   tau( 492) = (   0.6875000   0.3608439   0.1497278  )
       493           N   tau( 493) = (   0.6875000   0.4690971   0.1497278  )
       494           N   tau( 494) = (   0.6875000   0.5773503   0.1497278  )
       495           N   tau( 495) = (   0.6875000   0.6856035   0.1497278  )
       496           N   tau( 496) = (   0.6875000   0.7938567   0.1497278  )
       497           N   tau( 497) = (   0.8125000   0.0360844   0.1497278  )
       498           N   tau( 498) = (   0.8125000   0.1443376   0.1497278  )
       499           N   tau( 499) = (   0.8125000   0.2525908   0.1497278  )
       500           N   tau( 500) = (   0.8125000   0.3608439   0.1497278  )
       501           N   tau( 501) = (   0.8125000   0.4690971   0.1497278  )
       502           N   tau( 502) = (   0.8125000   0.5773503   0.1497278  )
       503           N   tau( 503) = (   0.8125000   0.6856035   0.1497278  )
       504           N   tau( 504) = (   0.8125000   0.7938567   0.1497278  )
       505           N   tau( 505) = (   0.9375000   0.0360844   0.1497278  )
       506           N   tau( 506) = (   0.9375000   0.1443376   0.1497278  )
       507           N   tau( 507) = (   0.9375000   0.2525908   0.1497278  )
       508           N   tau( 508) = (   0.9375000   0.3608439   0.1497278  )
       509           N   tau( 509) = (   0.9375000   0.4690971   0.1497278  )
       510           N   tau( 510) = (   0.9375000   0.5773503   0.1497278  )
       511           N   tau( 511) = (   0.9375000   0.6856035   0.1497278  )
       512           N   tau( 512) = (   0.9375000   0.7938567   0.1497278  )
       513           O   tau( 513) = (   0.3750000   0.3247596   0.2393798  )
       514           H   tau( 514) = (   0.3750000   0.3436490   0.2247596  )
       515           H   tau( 515) = (   0.3750000   0.3058702   0.2247596  )

     number of k points=     4
                       cart. coord. in units 2pi/alat
        k(    1) = (   0.0000000   0.0000000   0.0000000), wk =   0.2222222
        k(    2) = (   0.0000000   0.3849001   0.0000000), wk =   0.4444444
        k(    3) = (   0.3333333   0.0000000   0.0000000), wk =   0.4444444
        k(    4) = (   0.3333333   0.3849001   0.0000000), wk =   0.8888889

     Dense  grid: 14036177 G-vectors     FFT dimensions: ( 360, 300, 270)

     Estimated max dynamical RAM per process >       3.34 GB

     Estimated total dynamical RAM >     427.44 GB

     Check: negative core charge=   -0.000007

     Initial potential from superposition of free atoms

     starting charge    2055.9258, renormalised to    2056.0000

     negative rho (up, down):  2.270E-01 0.000E+00
     Starting wfcs are 2054 randomized atomic wfcs
     Checking if some PAW data can be deallocated... 

     total cpu time spent up to now is      817.1 secs

     Self-consistent Calculation

     iteration #  1     ecut=    51.45 Ry     beta= 0.70
     Davidson diagonalization with overlap
     ethr =  1.00E-02,  avg # of iterations =  3.0

     negative rho (up, down):  5.911E-01 0.000E+00

     total cpu time spent up to now is     2562.3 secs

     total energy              =  -10210.29791095 Ry
     estimated scf accuracy    <     109.06616676 Ry

     iteration #  2     ecut=    51.45 Ry     beta= 0.70
     Davidson diagonalization with overlap
     ethr =  5.30E-03,  avg # of iterations =  3.5

     negative rho (up, down):  6.454E-01 0.000E+00

     total cpu time spent up to now is     4392.4 secs

     total energy              =  -10242.17959788 Ry
     estimated scf accuracy    <      47.76545687 Ry

     iteration #  3     ecut=    51.45 Ry     beta= 0.70
     Davidson diagonalization with overlap
     ethr =  2.32E-03,  avg # of iterations =  2.0

     negative rho (up, down):  7.783E-01 0.000E+00

     total cpu time spent up to now is     5927.1 secs

     total energy              =  -10248.41716015 Ry
     estimated scf accuracy    <       1.18851442 Ry

     iteration #  4     ecut=    51.45 Ry     beta= 0.70
     Davidson diagonalization with overlap
     ethr =  5.78E-05,  avg # of iterations =  6.2

     negative rho (up, down):  7.846E-01 0.000E+00

     total cpu time spent up to now is     8059.0 secs

     total energy              =  -10249.32214136 Ry
     estimated scf accuracy    <       1.50755976 Ry

     iteration #  5     ecut=    51.45 Ry     beta= 0.70
     Davidson diagonalization with overlap
     ethr =  5.78E-05,  avg # of iterations =  5.0

     negative rho (up, down):  7.909E-01 0.000E+00

     total cpu time spent up to now is     9313.1 secs

     total energy              =  -10249.27798162 Ry
     estimated scf accuracy    <       0.37635812 Ry

     iteration #  6     ecut=    51.45 Ry     beta= 0.70
     Davidson diagonalization with overlap
     ethr =  1.83E-05,  avg # of iterations =  2.0

     negative rho (up, down):  8.080E-01 0.000E+00

     total cpu time spent up to now is    10723.5 secs

     total energy              =  -10249.32596084 Ry
     estimated scf accuracy    <       0.02775042 Ry

     iteration #  7     ecut=    51.45 Ry     beta= 0.70
     Davidson diagonalization with overlap
     c_bands:  4 eigenvalues not converged
     c_bands:  4 eigenvalues not converged
     ethr =  1.35E-06,  avg # of iterations = 50.2

     negative rho (up, down):  8.084E-01 0.000E+00

     total cpu time spent up to now is    15028.4 secs

     total energy              =  -10249.33146938 Ry
     estimated scf accuracy    <       0.00086847 Ry

     iteration #  8     ecut=    51.45 Ry     beta= 0.70
     Davidson diagonalization with overlap
     ethr =  4.22E-08,  avg # of iterations = 11.5

     negative rho (up, down):  8.084E-01 0.000E+00

     total cpu time spent up to now is    16817.5 secs

     total energy              =  -10249.33168312 Ry
     estimated scf accuracy    <       0.00005312 Ry

     iteration #  9     ecut=    51.45 Ry     beta= 0.70
     Davidson diagonalization with overlap
     ethr =  2.58E-09,  avg # of iterations =  6.0

     negative rho (up, down):  8.085E-01 0.000E+00

     total cpu time spent up to now is    18728.1 secs

     total energy              =  -10249.33168045 Ry
     estimated scf accuracy    <       0.00006348 Ry

     iteration # 10     ecut=    51.45 Ry     beta= 0.70
     Davidson diagonalization with overlap
     ethr =  2.58E-09,  avg # of iterations =  4.0

     negative rho (up, down):  8.084E-01 0.000E+00

     total cpu time spent up to now is    19950.9 secs

     total energy              =  -10249.33167825 Ry
     estimated scf accuracy    <       0.00001266 Ry

     iteration # 11     ecut=    51.45 Ry     beta= 0.70
     Davidson diagonalization with overlap
     ethr =  6.16E-10,  avg # of iterations =  4.5

     negative rho (up, down):  8.084E-01 0.000E+00

     total cpu time spent up to now is    21763.5 secs

     End of self-consistent calculation

          k = 0.0000 0.0000 0.0000 (****** PWs)   bands (ev):

   -24.1196 -22.3382 -22.2837 -22.2704 -22.2551 -22.2548 -22.2036 -22.1985
   -22.1958 -22.1944 -22.1075 -22.1049 -22.0411 -22.0369 -22.0315 -22.0289
   -22.0283 -22.0273 -21.9779 -21.9776 -21.9724 -21.9719 -21.8320 -21.8302
   -21.8129 -21.8126 -21.8105 -21.8100 -21.7586 -21.7574 -21.7548 -21.7545
   -21.6700 -21.6698 -21.6155 -21.6153 -21.6093 -21.6093 -21.5432 -21.5425
   -21.5419 -21.5418 -21.4559 -21.4541 -21.4540 -21.4528 -21.4517 -21.4514
   -21.3853 -21.3843 -21.3816 -21.3811 -21.1969 -21.1962 -21.1940 -21.1938
   -21.1797 -21.1795 -21.1764 -21.1761 -21.1758 -21.1758 -21.1277 -21.1274
   -21.1219 -21.1219 -20.9907 -20.9904 -20.9743 -20.9740 -20.9717 -20.9717
   -20.9260 -20.9257 -20.9224 -20.9223 -20.8452 -20.8447 -20.8442 -20.8439
   -20.7341 -20.7335 -20.7334 -20.7332 -20.7271 -20.7269 -20.7261 -20.7260
   -20.5971 -20.5968 -20.5472 -20.5469 -20.5413 -20.5413 -20.4610 -20.4608
   -20.4297 -20.4290 -20.4283 -20.4280 -20.4065 -20.4060 -20.4043 -20.4038
   -20.4037 -20.4034 -20.4005 -20.4005 -20.3997 -20.3995 -20.3990 -20.3989
   -20.2379 -20.2377 -20.2372 -20.2372 -20.1776 -20.1773 -20.1764 -20.1763
   -20.0303 -20.0298 -20.0286 -20.0285 -19.9832 -19.9820 -19.9791 -19.9791
   -19.9777 -19.9777 -19.9366 -19.9358 -19.9311 -19.9302 -19.9012 -19.9010
   -19.8890 -19.8885 -19.8881 -19.8878 -19.8578 -19.8576 -19.8548 -19.8548
   -19.8071 -19.8061 -19.8047 -19.8039 -19.7377 -19.7375 -19.7367 -19.7366
   -19.6566 -19.6562 -19.6530 -19.6530 -19.6083 -19.6072 -19.6067 -19.6062
   -19.5768 -19.5765 -19.5755 -19.5754 -19.5613 -19.5612 -19.5585 -19.5584
   -19.4703 -19.4601 -19.4249 -19.4192 -19.4177 -19.4161 -19.3734 -19.3732
   -19.3684 -19.3669 -19.3659 -19.3657 -19.3643 -19.3636 -19.3556 -19.3556
   -19.3479 -19.3477 -19.3473 -19.3473 -19.3123 -19.3111 -19.3107 -19.3089
   -19.3085 -19.3070 -19.3047 -19.3041 -19.3038 -19.3038 -19.3033 -19.3032
   -19.2656 -19.2654 -19.2605 -19.2605 -19.2465 -19.2409 -19.2409 -19.2074
   -19.2033 -19.1753 -19.1752 -19.1736 -19.1736 -19.1434 -19.1417 -19.1373
   -19.1369 -19.1330 -19.1329 -19.1325 -19.1325 -19.0998 -19.0986 -19.0426
   -19.0424 -19.0414 -19.0413 -18.9954 -18.9952 -18.9942 -18.9942 -18.9695
   -18.9691 -18.9621 -18.9621 -18.9540 -18.9528 -18.9451 -18.9446 -18.9406
   -18.9404 -18.9387 -18.9387 -18.8074 -18.8069 -18.7985 -18.7985 -18.7798
   -18.7794 -18.7774 -18.7771 -18.7766 -18.7766 -18.7041 -18.7040 -18.6689
   -18.6688 -13.5559 -13.5535 -13.5533 -13.5082 -13.5020 -13.4392 -13.4391
   -13.4299 -13.4298 -13.4141 -13.4141 -13.4136 -13.4136 -13.3730 -13.3699
   -13.3462 -13.3462 -13.3403 -13.3402 -13.2528 -13.2526 -13.2519 -13.2518
   -13.2166 -13.2088 -13.1728 -13.1674 -13.1659 -13.1641 -13.1510 -13.1508
   -13.0826 -13.0826 -13.0810 -13.0810 -13.0549 -13.0548 -13.0541 -13.0525
   -13.0524 -13.0515 -13.0503 -13.0496 -13.0495 -13.0492 -13.0488 -13.0486
   -13.0183 -13.0182 -13.0164 -13.0164 -12.8856 -12.8852 -12.8809 -12.8798
   -12.8764 -12.8759 -12.8721 -12.8718 -12.8617 -12.8614 -12.8596 -12.8596
   -12.8586 -12.8585 -12.7832 -12.7832 -12.7812 -12.7812 -12.6968 -12.6955
   -12.6909 -12.6905 -12.6737 -12.6736 -12.6721 -12.6721 -12.6503 -12.6502
   -12.6498 -12.6497 -12.6317 -12.6316 -12.6037 -12.6036 -12.5971 -12.5970
   -12.5606 -12.5604 -12.5578 -12.5577 -12.5124 -12.5119 -12.5117 -12.5112
   -12.4158 -12.4158 -12.4152 -12.4152 -12.3241 -12.3234 -12.3178 -12.3178
   -12.3167 -12.3167 -12.2917 -12.2914 -12.2885 -12.2878 -12.2649 -12.2645
   -12.2644 -12.2639 -12.2636 -12.2636 -12.2250 -12.2248 -12.2237 -12.2230
   -12.1653 -12.1649 -12.1648 -12.1643 -11.9929 -11.9929 -11.9921 -11.9920
   -11.9488 -11.9488 -11.9451 -11.9451 -11.8950 -11.7782 -11.7780 -11.7273
   -11.7271 -11.7267 -11.7264 -11.7243 -11.7243 -11.7237 -11.7237 -11.6741
   -11.6740 -11.6380 -11.6379 -11.4270 -11.4270 -11.4265 -11.4265 -11.4130
   -11.4129 -11.4102 -11.4102 -11.2679 -11.2676 -11.2667 -11.2666 -11.2257
   -11.2256 -11.2224 -11.2221 -11.2198 -11.2196 -11.1687 -11.1687 -11.1324
   -11.1319 -11.1229 -11.1224 -11.1223 -11.1215 -11.1196 -11.1192 -11.1188
   -11.1181 -11.1180 -11.1178 -11.1095 -11.1094 -11.0984 -11.0984 -11.0957
   -11.0957 -11.0529 -11.0521 -11.0491 -11.0487 -10.8072 -10.8071 -10.7778
   -10.7775 -10.7771 -10.7770 -10.7631 -10.7630 -10.7599 -10.7599 -10.6334
   -10.6332 -10.6330 -10.6327 -10.5376 -10.5375 -10.5374 -10.5369 -10.5363
   -10.5362 -10.4518 -10.4517 -10.4515 -10.4514 -10.4208 -10.4198 -10.3934
   -10.3934 -10.3930 -10.3928 -10.3603 -10.3602 -10.3599 -10.3598 -10.3164
   -10.3152 -10.3121 -10.3119 -10.1830 -10.1828 -10.1796 -10.1796 -10.1565
   -10.1563 -10.1528 -10.1528 -10.0022 -10.0022 -10.0016 -10.0015  -9.9930
    -9.9923  -9.9921  -9.9918  -9.9322  -9.9320  -9.9293  -9.9293  -9.9140
    -9.8432  -9.8426  -9.8421  -9.8330  -9.8329  -9.8267  -9.8068  -9.8043
    -9.7906  -9.7904  -9.7795  -9.7795  -9.7532  -9.7527  -9.7524  -9.7522
    -9.7498  -9.7495  -9.7489  -9.7483  -9.7481  -9.7479  -9.7376  -9.7293
    -9.7261  -9.7249  -9.7193  -9.7192  -9.7188  -9.7187  -9.6242  -9.6210
    -9.6074  -9.6028  -9.5421  -9.5421  -9.5397  -9.5395  -9.5379  -9.5345
    -9.5335  -9.5333  -9.5329  -9.5327  -9.5327  -9.5319  -9.5292  -9.5288
    -9.5284  -9.5281  -9.5180  -9.5165  -9.5164  -9.5164  -9.5162  -9.5087
    -9.5036  -9.5011  -9.5005  -9.4995  -9.4424  -9.4421  -9.4418  -9.4417
    -9.4332  -9.4313  -9.4250  -9.4249  -9.2820  -9.2819  -9.2785  -9.2785
    -9.2772  -9.2763  -9.2744  -9.2743  -9.2356  -9.2312  -9.2100  -9.2079
    -9.2051  -9.2050  -9.1368  -9.1334  -9.1305  -9.1302  -9.1211  -9.1205
    -9.1175  -9.1173  -9.0858  -9.0856  -9.0336  -9.0334  -9.0317  -9.0317
    -9.0297  -9.0192  -9.0144  -9.0131  -9.0044  -9.0044  -8.9996  -8.9996
    -8.9482  -8.9425  -8.9418  -8.9409  -8.9377  -8.9366  -8.9336  -8.9336
    -8.8782  -8.8778  -8.8743  -8.8740  -8.8537  -8.8534  -8.8531  -8.8530
    -8.8515  -8.8514  -8.8500  -8.8500  -8.8479  -8.8479  -8.8475  -8.8475
    -8.8450  -8.8417  -8.8417  -8.8416  -8.8409  -8.8405  -8.8377  -8.8376
    -8.8147  -8.8146  -8.8128  -8.8127  -8.8123  -8.8112  -8.8110  -8.8107
    -8.8047  -8.8047  -8.7973  -8.7915  -8.7915  -8.7411  -8.7407  -8.7404
    -8.7403  -8.7291  -8.7291  -8.7275  -8.7275  -8.7269  -8.7218  -8.7210
    -8.7205  -8.7197  -8.7186  -8.7183  -8.7169  -8.7016  -8.7014  -8.6965
    -8.6963  -8.6891  -8.6891  -8.6891  -8.6890  -8.6297  -8.6266  -8.6231
    -8.6228  -8.5252  -8.5250  -8.5246  -8.5246  -8.4812  -8.4807  -8.4797
    -8.4795  -8.4793  -8.4790  -8.4785  -8.4782  -8.4718  -8.4718  -8.3909
    -8.3908  -8.3761  -8.3687  -8.3657  -8.3655  -8.3475  -8.3455  -8.3430
    -8.3425  -8.3420  -8.3419  -8.3280  -8.3278  -8.3194  -8.3192  -8.3108
    -8.3108  -8.2781  -8.2779  -8.2778  -8.2769  -8.2768  -8.2757  -8.2687
    -8.2687  -8.2640  -8.2638  -8.2634  -8.2633  -8.1719  -8.1716  -8.1688
    -8.1688  -8.1014  -8.1014  -8.0984  -8.0944  -8.0925  -8.0906  -8.0906
    -8.0869  -8.0759  -8.0755  -8.0753  -8.0750  -8.0716  -8.0653  -8.0619
    -8.0619  -8.0419  -8.0417  -8.0416  -8.0415  -8.0151  -7.9982  -7.9941
    -7.9940  -7.9575  -7.8862  -7.8853  -7.8849  -7.8806  -7.8805  -7.8805
    -7.8803  -7.8769  -7.8745  -7.8739  -7.8736  -7.8728  -7.8149  -7.8147
    -7.8071  -7.8071  -7.7908  -7.7899  -7.7321  -7.7320  -7.7310  -7.7286
    -7.7245  -7.7230  -7.7230  -7.7213  -7.6152  -7.6145  -7.6142  -7.6139
    -7.6126  -7.6123  -7.6002  -7.5995  -7.5990  -7.5989  -7.5988  -7.5987
    -7.5396  -7.5380  -7.5296  -7.5287  -7.5272  -7.5267  -7.4729  -7.4713
    -7.4655  -7.4655  -7.3532  -7.3524  -7.3399  -7.3393  -7.3337  -7.3326
    -7.3063  -7.3057  -7.3045  -7.3038  -7.2767  -7.2745  -7.2741  -7.2728
    -7.2726  -7.2723  -7.2693  -7.2692  -7.2684  -7.2683  -7.2678  -7.2678
    -7.2515  -7.2513  -7.2509  -7.2509  -7.2410  -7.2408  -7.2340  -7.2340
    -7.1834  -7.1823  -7.1819  -7.1797  -7.1792  -7.1776  -7.0635  -7.0634
    -7.0374  -7.0369  -7.0363  -7.0361  -6.9765  -6.9741  -6.9700  -6.9698
    -6.9559  -6.9548  -6.9539  -6.9538  -6.9492  -6.9488  -6.9480  -6.9476
    -6.9474  -6.9473  -6.8841  -6.8818  -6.7415  -6.7410  -6.7395  -6.7394
    -6.6796  -6.6784  -6.6731  -6.6728  -6.6690  -6.6671  -6.6659  -6.6654
    -6.6640  -6.6640  -6.6061  -6.6045  -6.5984  -6.5983  -6.5602  -6.5599
    -6.5469  -6.5435  -6.5425  -6.5425  -6.5421  -6.5419  -6.5384  -6.5371
    -6.5363  -6.5342  -6.5321  -6.5310  -6.5305  -6.5296  -6.4976  -6.4972
    -6.4934  -6.4933  -6.4372  -6.4350  -6.4215  -6.4199  -6.4177  -6.4177
    -6.3179  -6.3170  -6.3161  -6.3158  -6.3148  -6.3100  -6.2587  -6.2511
    -6.2502  -6.2498  -6.2316  -6.2270  -6.1942  -6.1938  -6.1901  -6.1901
    -6.1397  -6.1366  -6.1340  -6.1323  -6.1316  -6.1313  -6.1080  -6.1004
    -6.0854  -6.0850  -6.0836  -6.0835  -6.0522  -6.0506  -6.0474  -6.0474
    -5.9886  -5.9882  -5.9377  -5.9049  -5.8961  -5.8454  -5.8384  -5.8358
    -5.8345  -5.7799  -5.7771  -5.7758  -5.7749  -5.7744  -5.7743  -5.7501
    -5.7477  -5.7459  -5.7447  -5.7434  -5.7430  -5.7386  -5.7386  -5.6791
    -5.6758  -5.6757  -5.6739  -5.6737  -5.6718  -5.6704  -5.6694  -5.6693
    -5.6691  -5.6687  -5.6687  -5.5975  -5.5967  -5.5921  -5.5920  -5.5629
    -5.5587  -5.5585  -5.5078  -5.5018  -5.4615  -5.4609  -5.4588  -5.4587
    -5.4254  -5.4229  -5.4202  -5.4196  -5.4157  -5.4154  -5.4143  -5.4141
    -5.3474  -5.3453  -5.2592  -5.2589  -5.2580  -5.2576  -5.1919  -5.1915
    -5.1907  -5.1905  -5.1524  -5.1517  -5.1453  -5.1452  -5.1286  -5.1268
    -5.1213  -5.1209  -5.1133  -5.1132  -5.1076  -5.1071  -4.8897  -4.8887
    -4.8818  -4.8817  -4.8504  -4.8499  -4.8454  -4.8453  -4.8453  -4.8451
    -4.7242  -4.7240  -4.6667  -4.6665  -0.1925  -0.1059  -0.0547  -0.0366
    -0.0259   0.0346   0.0461   0.0473   0.0681   0.0728   0.0736   0.0944
     0.0958   0.1249   0.1314   0.1378   0.1392   0.1397   0.1410   0.1482
     0.1549

          k = 0.0000 0.3849 0.0000 (****** PWs)   bands (ev):

   -24.1196 -22.3321 -22.2992 -22.2696 -22.2623 -22.2412 -22.2364 -22.1990
   -22.1440 -22.1372 -22.1255 -22.0994 -22.0971 -22.0752 -22.0715 -22.0646
   -22.0615 -21.9760 -21.9729 -21.9273 -21.9024 -21.8995 -21.8722 -21.8662
   -21.8237 -21.8224 -21.8063 -21.7959 -21.7956 -21.7510 -21.7451 -21.7111
   -21.7078 -21.6981 -21.6980 -21.6303 -21.6291 -21.5876 -21.5855 -21.5198
   -21.4662 -21.4598 -21.4485 -21.4473 -21.4394 -21.4390 -21.4212 -21.4205
   -21.3566 -21.3299 -21.3290 -21.3247 -21.3235 -21.3064 -21.3041 -21.3020
   -21.2966 -21.2608 -21.2601 -21.1461 -21.1438 -21.0814 -21.0802 -21.0495
   -21.0483 -20.9941 -20.9845 -20.9841 -20.9697 -20.9687 -20.9587 -20.9586
   -20.9422 -20.9365 -20.8942 -20.8930 -20.8743 -20.8741 -20.8105 -20.8103
   -20.7989 -20.7919 -20.7894 -20.7480 -20.7423 -20.7086 -20.7077 -20.6431
   -20.6429 -20.6012 -20.5987 -20.5617 -20.5609 -20.5511 -20.5500 -20.5400
   -20.5399 -20.4556 -20.4553 -20.4325 -20.4325 -20.3910 -20.3671 -20.3659
   -20.3592 -20.3590 -20.3422 -20.3365 -20.3043 -20.3041 -20.3035 -20.3033
   -20.2375 -20.2365 -20.2028 -20.2006 -20.1848 -20.1704 -20.1702 -20.1605
   -20.1604 -20.1370 -20.1315 -20.0742 -20.0740 -20.0649 -20.0641 -20.0025
   -20.0002 -19.9852 -19.9840 -19.8978 -19.8975 -19.8847 -19.8842 -19.8781
   -19.8781 -19.8731 -19.8730 -19.8246 -19.8244 -19.7941 -19.7927 -19.7902
   -19.7849 -19.7847 -19.7678 -19.7676 -19.7453 -19.7398 -19.7291 -19.7289
   -19.7111 -19.7103 -19.6831 -19.6830 -19.6239 -19.6237 -19.6213 -19.6185
   -19.6145 -19.5713 -19.5658 -19.5393 -19.5391 -19.5356 -19.5348 -19.4940
   -19.4939 -19.4524 -19.4498 -19.4334 -19.4321 -19.4303 -19.4299 -19.4225
   -19.4225 -19.4187 -19.4187 -19.3706 -19.3702 -19.3550 -19.3549 -19.3494
   -19.3364 -19.3363 -19.3227 -19.3226 -19.3083 -19.3019 -19.2990 -19.2988
   -19.2905 -19.2904 -19.2784 -19.2770 -19.2750 -19.2748 -19.2723 -19.2701
   -19.2685 -19.2551 -19.2550 -19.2420 -19.2420 -19.2327 -19.2292 -19.2292
   -19.2286 -19.2097 -19.2086 -19.1954 -19.1953 -19.1949 -19.1938 -19.1253
   -19.1237 -19.1229 -19.1228 -19.0955 -19.0953 -19.0750 -19.0750 -19.0665
   -19.0657 -19.0344 -19.0336 -19.0129 -19.0127 -19.0032 -19.0032 -18.9850
   -18.9848 -18.9677 -18.9671 -18.9542 -18.9541 -18.9404 -18.9403 -18.9092
   -18.9091 -18.8934 -18.8932 -18.8574 -18.8566 -18.8370 -18.8369 -18.7998
   -18.7991 -18.7438 -18.7436 -18.7248 -18.7248 -18.7118 -18.7117 -18.6831
   -18.6830 -13.5394 -13.5393 -13.5172 -13.4928 -13.4927 -13.4700 -13.4631
   -13.4293 -13.4293 -13.4062 -13.4061 -13.3981 -13.3929 -13.3929 -13.3549
   -13.3490 -13.3384 -13.3384 -13.3337 -13.3324 -13.3187 -13.3186 -13.2596
   -13.2595 -13.2266 -13.2244 -13.1962 -13.1961 -13.1503 -13.1503 -13.1431
   -13.1430 -13.1203 -13.1190 -13.0996 -13.0996 -13.0897 -13.0897 -13.0315
   -13.0314 -13.0250 -13.0240 -13.0151 -13.0150 -12.9868 -12.9868 -12.9646
   -12.9572 -12.9571 -12.9251 -12.9205 -12.8971 -12.8971 -12.8930 -12.8929
   -12.8645 -12.8645 -12.8451 -12.8438 -12.8212 -12.8194 -12.7845 -12.7836
   -12.7639 -12.7638 -12.7419 -12.7419 -12.7262 -12.7261 -12.6951 -12.6950
   -12.6926 -12.6922 -12.6835 -12.6833 -12.6739 -12.6733 -12.6691 -12.6691
   -12.6651 -12.6461 -12.6461 -12.6442 -12.6442 -12.6418 -12.6417 -12.6293
   -12.6252 -12.6120 -12.6119 -12.5957 -12.5956 -12.5654 -12.5647 -12.5429
   -12.5410 -12.5169 -12.5169 -12.4901 -12.4901 -12.4386 -12.4376 -12.4192
   -12.4189 -12.4115 -12.4113 -12.3212 -12.3211 -12.3036 -12.3035 -12.2932
   -12.2932 -12.1517 -12.1517 -12.1299 -12.1298 -12.1291 -12.1290 -12.0938
   -12.0932 -11.9484 -11.9309 -11.9308 -11.9195 -11.9174 -11.9143 -11.9137
   -11.8952 -11.8827 -11.8821 -11.8685 -11.8684 -11.8173 -11.8172 -11.7897
   -11.7896 -11.7311 -11.7310 -11.6785 -11.6784 -11.6280 -11.6280 -11.6121
   -11.6120 -11.5998 -11.5998 -11.5772 -11.5748 -11.5441 -11.5320 -11.5318
   -11.5202 -11.5193 -11.5152 -11.5151 -11.5025 -11.5023 -11.4466 -11.4465
   -11.3298 -11.3297 -11.3106 -11.3105 -11.2159 -11.2158 -11.2053 -11.2045
   -11.1789 -11.1789 -11.1462 -11.1455 -11.1150 -11.1149 -10.9982 -10.9982
   -10.9685 -10.9684 -10.9629 -10.9628 -10.9601 -10.9595 -10.9591 -10.9591
   -10.9173 -10.9171 -10.9164 -10.9161 -10.9030 -10.9030 -10.8473 -10.8472
   -10.7451 -10.7447 -10.7286 -10.7239 -10.6832 -10.6831 -10.6810 -10.6809
   -10.6801 -10.6668 -10.6574 -10.6558 -10.6553 -10.5584 -10.5583 -10.5216
   -10.5215 -10.4898 -10.4897 -10.4099 -10.4087 -10.3723 -10.3717 -10.3625
   -10.3624 -10.3476 -10.3475 -10.3357 -10.3356 -10.3285 -10.3252 -10.2963
   -10.2961 -10.2634 -10.2633 -10.2372 -10.2315 -10.2308 -10.2252 -10.2190
   -10.2189 -10.2065 -10.1251 -10.1243 -10.1004 -10.1003 -10.0717 -10.0715
   -10.0381 -10.0381 -10.0214 -10.0213  -9.9936  -9.9935  -9.9850  -9.9848
    -9.9714  -9.9714  -9.9047  -9.8823  -9.8822  -9.8648  -9.8349  -9.8343
    -9.8257  -9.8156  -9.8120  -9.8119  -9.7934  -9.7932  -9.7905  -9.7904
    -9.7880  -9.7814  -9.7515  -9.7515  -9.7452  -9.7452  -9.7292  -9.6843
    -9.6843  -9.6566  -9.6514  -9.6507  -9.6474  -9.6297  -9.6153  -9.6118
    -9.5963  -9.5920  -9.5825  -9.5809  -9.5638  -9.5581  -9.5501  -9.5462
    -9.5443  -9.5419  -9.5264  -9.5261  -9.5022  -9.5021  -9.4683  -9.4659
    -9.4515  -9.4512  -9.4298  -9.4249  -9.4193  -9.4192  -9.3819  -9.3795
    -9.3634  -9.3633  -9.3626  -9.3450  -9.3350  -9.3312  -9.3312  -9.3304
    -9.3257  -9.3124  -9.3121  -9.2902  -9.2896  -9.2818  -9.2754  -9.2753
    -9.2495  -9.2493  -9.2238  -9.2205  -9.2099  -9.2094  -9.1987  -9.1914
    -9.1913  -9.1868  -9.1858  -9.1700  -9.1678  -9.1542  -9.1541  -9.1530
    -9.1507  -9.1499  -9.1499  -9.1309  -9.1308  -9.1255  -9.1178  -9.0867
    -9.0866  -9.0710  -9.0650  -9.0546  -9.0542  -9.0538  -9.0537  -9.0416
    -9.0416  -9.0228  -9.0120  -9.0105  -9.0096  -8.9904  -8.9903  -8.9879
    -8.9822  -8.9674  -8.9673  -8.9620  -8.9598  -8.9593  -8.9591  -8.9564
    -8.9563  -8.9289  -8.9288  -8.9063  -8.9043  -8.9006  -8.8987  -8.8987
    -8.8971  -8.8876  -8.8876  -8.8823  -8.8741  -8.8507  -8.8502  -8.8355
    -8.8217  -8.8217  -8.8098  -8.8031  -8.7937  -8.7929  -8.7928  -8.7879
    -8.7592  -8.7393  -8.7361  -8.7361  -8.7301  -8.7279  -8.7278  -8.7147
    -8.7112  -8.7087  -8.7087  -8.7022  -8.7012  -8.6782  -8.6781  -8.6769
    -8.6768  -8.6759  -8.6745  -8.6544  -8.6303  -8.6302  -8.6140  -8.6140
    -8.5898  -8.5876  -8.5828  -8.5753  -8.5681  -8.5676  -8.5555  -8.5554
    -8.5540  -8.5513  -8.5460  -8.5431  -8.5213  -8.5174  -8.5150  -8.5078
    -8.5052  -8.5049  -8.4867  -8.4835  -8.4756  -8.4745  -8.4675  -8.4674
    -8.4600  -8.4589  -8.4571  -8.4536  -8.4508  -8.4508  -8.4266  -8.4265
    -8.4148  -8.4147  -8.3679  -8.3075  -8.3069  -8.3050  -8.3048  -8.3030
    -8.2981  -8.2859  -8.2855  -8.2445  -8.2443  -8.2416  -8.2151  -8.2098
    -8.1716  -8.1674  -8.1629  -8.1622  -8.1621  -8.1540  -8.1447  -8.1446
    -8.1421  -8.1421  -8.1026  -8.1025  -8.0977  -8.0847  -8.0776  -8.0736
    -8.0697  -8.0697  -8.0651  -8.0625  -8.0600  -8.0583  -8.0568  -8.0548
    -8.0547  -8.0463  -8.0446  -8.0248  -8.0138  -7.9935  -7.9856  -7.9800
    -7.9620  -7.9535  -7.9487  -7.9457  -7.9353  -7.9343  -7.9269  -7.9170
    -7.8789  -7.8783  -7.8384  -7.8359  -7.8328  -7.8312  -7.8284  -7.8278
    -7.8190  -7.8105  -7.8102  -7.7849  -7.7509  -7.7452  -7.7243  -7.7235
    -7.6965  -7.6958  -7.6904  -7.6833  -7.6398  -7.6396  -7.6281  -7.6205
    -7.6121  -7.6120  -7.6058  -7.6051  -7.5888  -7.5878  -7.5586  -7.5577
    -7.5562  -7.5482  -7.5458  -7.5440  -7.5435  -7.5210  -7.5204  -7.4921
    -7.4920  -7.4794  -7.4784  -7.4625  -7.4622  -7.4370  -7.4329  -7.4296
    -7.4258  -7.4258  -7.3798  -7.3791  -7.3698  -7.3693  -7.3449  -7.3441
    -7.3150  -7.3147  -7.2503  -7.2489  -7.2225  -7.2211  -7.2100  -7.2096
    -7.1848  -7.1780  -7.1498  -7.1496  -7.1316  -7.1314  -7.1295  -7.1295
    -7.1163  -7.1156  -7.0486  -7.0405  -7.0392  -7.0384  -7.0295  -7.0276
    -7.0232  -7.0223  -7.0206  -7.0185  -6.9898  -6.9870  -6.9581  -6.9556
    -6.9541  -6.9444  -6.9443  -6.9412  -6.9411  -6.9267  -6.9266  -6.9209
    -6.9188  -6.8938  -6.8870  -6.8800  -6.8584  -6.8518  -6.8423  -6.8028
    -6.8028  -6.7948  -6.7941  -6.7747  -6.7745  -6.7567  -6.7531  -6.7040
    -6.7023  -6.7010  -6.6816  -6.6801  -6.6364  -6.6354  -6.5544  -6.5538
    -6.5500  -6.5308  -6.5307  -6.5287  -6.5287  -6.5145  -6.5144  -6.5144
    -6.5095  -6.4756  -6.4732  -6.4479  -6.4477  -6.4445  -6.4429  -6.4058
    -6.4041  -6.3884  -6.3882  -6.3873  -6.3848  -6.3726  -6.3710  -6.3679
    -6.3657  -6.3582  -6.3581  -6.3267  -6.3197  -6.3085  -6.3084  -6.2859
    -6.2853  -6.2718  -6.2652  -6.2468  -6.2355  -6.2352  -6.1716  -6.1664
    -6.1480  -6.1461  -6.1454  -6.1445  -6.1344  -6.1274  -6.1199  -6.1165
    -6.0681  -6.0611  -6.0568  -6.0284  -6.0283  -6.0246  -6.0215  -6.0204
    -6.0054  -5.9558  -5.9484  -5.9328  -5.8948  -5.8913  -5.8720  -5.8695
    -5.8577  -5.8567  -5.8510  -5.8485  -5.8404  -5.8404  -5.7765  -5.7742
    -5.7592  -5.7589  -5.7246  -5.7238  -5.7212  -5.6998  -5.6991  -5.6650
    -5.6570  -5.6490  -5.6473  -5.6420  -5.6418  -5.6360  -5.6350  -5.6273
    -5.6262  -5.6171  -5.6168  -5.6022  -5.5792  -5.5786  -5.5616  -5.5615
    -5.5481  -5.5451  -5.5450  -5.5419  -5.5349  -5.5340  -5.5029  -5.5025
    -5.4985  -5.4966  -5.3872  -5.3846  -5.3818  -5.3816  -5.3442  -5.3437
    -5.3142  -5.3135  -5.3116  -5.3114  -5.2541  -5.2526  -5.2198  -5.2192
    -5.2093  -5.2092  -5.1758  -5.1754  -5.1472  -5.1460  -5.1319  -5.1316
    -5.1160  -5.1159  -5.0565  -5.0563  -5.0364  -5.0360  -4.9762  -4.9754
    -4.9411  -4.9409  -4.8813  -4.8806  -4.7848  -4.7843  -4.7630  -4.7629
    -4.7376  -4.7375  -4.6913  -4.6911  -0.1862  -0.1148  -0.0693  -0.0404
    -0.0146   0.0023   0.0568   0.0646   0.0648   0.0983   0.0995   0.1138
     0.1146   0.1328   0.1348   0.1375   0.1631   0.1645   0.1679   0.1711
     0.1752

          k = 0.3333 0.0000 0.0000 (****** PWs)   bands (ev):

   -24.1196 -22.3346 -22.3037 -22.2585 -22.2496 -22.2293 -22.2272 -22.2263
   -22.1741 -22.1565 -22.1531 -22.1012 -22.0975 -22.0316 -22.0293 -22.0243
   -22.0041 -22.0038 -21.9541 -21.9503 -21.9343 -21.9319 -21.9312 -21.8794
   -21.8788 -21.8599 -21.8571 -21.7343 -21.7333 -21.7151 -21.6662 -21.6658
   -21.6449 -21.6441 -21.6437 -21.6407 -21.6388 -21.6388 -21.5900 -21.5710
   -21.5708 -21.5206 -21.5183 -21.5167 -21.5154 -21.4312 -21.4308 -21.3769
   -21.3767 -21.3104 -21.3099 -21.3084 -21.2893 -21.2891 -21.2405 -21.2370
   -21.1767 -21.1764 -21.1537 -21.1515 -21.1514 -21.0893 -21.0890 -21.0871
   -21.0837 -21.0827 -21.0827 -21.0369 -21.0366 -21.0347 -21.0345 -20.9696
   -20.9695 -20.9008 -20.9007 -20.8887 -20.8884 -20.8199 -20.8186 -20.8184
   -20.7575 -20.7540 -20.7118 -20.7117 -20.6429 -20.6267 -20.6265 -20.5935
   -20.5932 -20.5835 -20.5800 -20.5725 -20.5722 -20.5718 -20.5716 -20.5688
   -20.5688 -20.5180 -20.5178 -20.5072 -20.5071 -20.4597 -20.4596 -20.4062
   -20.4059 -20.3362 -20.3360 -20.2858 -20.2855 -20.2761 -20.2752 -20.2742
   -20.2605 -20.2604 -20.2220 -20.2188 -20.1575 -20.1573 -20.1280 -20.1279
   -20.0880 -20.0863 -20.0862 -20.0683 -20.0680 -20.0393 -20.0361 -19.9904
   -19.9899 -19.9795 -19.9783 -19.9559 -19.9551 -19.9024 -19.9019 -19.8999
   -19.8998 -19.8996 -19.8991 -19.8573 -19.8566 -19.8319 -19.8317 -19.7846
   -19.7844 -19.7752 -19.7751 -19.7461 -19.7455 -19.7172 -19.6915 -19.6913
   -19.6830 -19.6821 -19.6796 -19.6774 -19.6764 -19.6761 -19.5816 -19.5813
   -19.5435 -19.5430 -19.5390 -19.5296 -19.5290 -19.5091 -19.5072 -19.4775
   -19.4773 -19.4688 -19.4571 -19.4499 -19.4492 -19.4461 -19.4458 -19.4397
   -19.4397 -19.4394 -19.4380 -19.4359 -19.4358 -19.3920 -19.3877 -19.3863
   -19.3861 -19.3541 -19.3496 -19.3431 -19.3429 -19.2983 -19.2982 -19.2855
   -19.2845 -19.2590 -19.2569 -19.2567 -19.2526 -19.2431 -19.2424 -19.2423
   -19.2249 -19.2226 -19.2158 -19.2099 -19.2065 -19.2057 -19.2009 -19.1985
   -19.1983 -19.1953 -19.1932 -19.1931 -19.1905 -19.1902 -19.1776 -19.1772
   -19.1770 -19.1416 -19.1093 -19.1067 -19.0833 -19.0757 -19.0753 -19.0705
   -19.0704 -19.0693 -19.0604 -19.0509 -19.0296 -19.0276 -19.0136 -19.0070
   -18.9984 -18.9981 -18.9975 -18.9852 -18.9849 -18.8977 -18.8872 -18.8843
   -18.8835 -18.8770 -18.8461 -18.8367 -18.8358 -18.8294 -18.8220 -18.8159
   -18.7757 -18.7709 -18.7671 -18.7640 -18.7572 -18.7326 -18.6968 -18.6695
   -18.6605 -13.5529 -13.5314 -13.5313 -13.5277 -13.4755 -13.4755 -13.4706
   -13.4673 -13.4672 -13.4539 -13.4539 -13.4258 -13.3420 -13.3419 -13.3253
   -13.3252 -13.3076 -13.2362 -13.2353 -13.2339 -13.2309 -13.2301 -13.2133
   -13.2131 -13.2125 -13.2056 -13.1928 -13.1927 -13.1880 -13.1880 -13.1874
   -13.1863 -13.1732 -13.1728 -13.1589 -13.1583 -13.1387 -13.1353 -13.0998
   -13.0965 -13.0621 -13.0016 -13.0015 -12.9991 -12.9959 -12.9672 -12.9560
   -12.9549 -12.9381 -12.9361 -12.9101 -12.9099 -12.9073 -12.9058 -12.9012
   -12.8994 -12.8598 -12.8598 -12.8150 -12.8135 -12.8117 -12.8104 -12.8074
   -12.8063 -12.8045 -12.8045 -12.8042 -12.8014 -12.7624 -12.7465 -12.7424
   -12.7341 -12.7321 -12.7261 -12.7251 -12.7024 -12.6989 -12.6707 -12.6547
   -12.6512 -12.6501 -12.6472 -12.6450 -12.6449 -12.6442 -12.6433 -12.5914
   -12.5772 -12.5771 -12.5729 -12.5375 -12.5375 -12.5271 -12.4988 -12.4984
   -12.4128 -12.3858 -12.3824 -12.3658 -12.3654 -12.3230 -12.3223 -12.3016
   -12.3008 -12.2733 -12.2730 -12.2721 -12.2718 -12.2714 -12.2712 -12.2497
   -12.2493 -12.2029 -12.2025 -12.2008 -12.2004 -12.1808 -12.1782 -12.1780
   -12.1770 -12.1755 -12.1749 -12.1686 -12.1680 -12.0829 -12.0363 -12.0363
   -12.0090 -12.0083 -11.9453 -11.9452 -11.8952 -11.8732 -11.8250 -11.7826
   -11.7382 -11.7381 -11.7030 -11.7029 -11.6930 -11.6894 -11.6452 -11.5349
   -11.5349 -11.5280 -11.4539 -11.4227 -11.4220 -11.4168 -11.4132 -11.4104
   -11.4103 -11.3985 -11.3967 -11.3798 -11.3796 -11.3796 -11.3638 -11.3580
   -11.3541 -11.3274 -11.3267 -11.2344 -11.2311 -11.1922 -11.1920 -11.1479
   -11.1477 -11.1216 -11.1215 -11.1071 -11.1061 -11.1061 -11.1055 -11.1054
   -11.1053 -11.1008 -11.0983 -11.0983 -11.0957 -11.0957 -11.0890 -11.0860
   -10.9686 -10.9674 -10.9339 -10.9308 -10.8422 -10.8422 -10.8293 -10.8254
   -10.8123 -10.8086 -10.7792 -10.7791 -10.7575 -10.6973 -10.6508 -10.6504
   -10.6235 -10.6230 -10.5855 -10.5855 -10.5816 -10.5802 -10.5776 -10.5757
   -10.5740 -10.5739 -10.4970 -10.4961 -10.4958 -10.4895 -10.4859 -10.4407
   -10.4401 -10.3980 -10.3976 -10.3854 -10.3822 -10.3091 -10.2747 -10.2744
   -10.2118 -10.2114 -10.1754 -10.1753 -10.1747 -10.1443 -10.1433 -10.1430
   -10.1272 -10.1271 -10.0980 -10.0975 -10.0738 -10.0484 -10.0445 -10.0329
   -10.0328  -9.9728  -9.9695  -9.9081  -9.8759  -9.8724  -9.8610  -9.8609
    -9.8523  -9.8521  -9.8166  -9.8164  -9.8155  -9.8119  -9.8117  -9.8117
    -9.8086  -9.7967  -9.7859  -9.7820  -9.7731  -9.7687  -9.7684  -9.7684
    -9.7682  -9.7662  -9.7660  -9.7588  -9.7587  -9.7562  -9.7534  -9.7526
    -9.7525  -9.7504  -9.7504  -9.6969  -9.6959  -9.6956  -9.6874  -9.6873
    -9.6733  -9.6703  -9.6703  -9.6686  -9.6070  -9.6070  -9.5988  -9.5935
    -9.5872  -9.5869  -9.5868  -9.5119  -9.5115  -9.5042  -9.5028  -9.4985
    -9.4941  -9.4694  -9.4689  -9.4683  -9.4658  -9.4546  -9.4546  -9.4089
    -9.4083  -9.4001  -9.3944  -9.3915  -9.3733  -9.3704  -9.3703  -9.3700
    -9.3696  -9.3686  -9.3685  -9.3377  -9.3094  -9.3079  -9.3064  -9.3038
    -9.2993  -9.2971  -9.2732  -9.2693  -9.2620  -9.2619  -9.2447  -9.2446
    -9.2017  -9.2016  -9.1897  -9.1886  -9.1886  -9.1583  -9.1078  -9.1038
    -9.1031  -9.1003  -9.0959  -9.0958  -9.0819  -9.0787  -9.0763  -9.0704
    -9.0698  -9.0604  -9.0603  -9.0557  -9.0553  -9.0092  -9.0071  -9.0071
    -9.0067  -8.9830  -8.9798  -8.9791  -8.9758  -8.9742  -8.9742  -8.9124
    -8.9123  -8.9065  -8.9016  -8.8815  -8.8808  -8.8785  -8.8782  -8.8749
    -8.8747  -8.8621  -8.8614  -8.8609  -8.8608  -8.8563  -8.8563  -8.8498
    -8.8497  -8.8325  -8.8323  -8.8320  -8.8277  -8.8203  -8.8202  -8.8189
    -8.8189  -8.8166  -8.8151  -8.8148  -8.8148  -8.8135  -8.8091  -8.8071
    -8.8058  -8.8016  -8.8015  -8.7918  -8.7918  -8.7730  -8.7695  -8.7683
    -8.7682  -8.7425  -8.7399  -8.6919  -8.6918  -8.6915  -8.6893  -8.6609
    -8.6608  -8.6508  -8.6507  -8.6425  -8.6424  -8.6238  -8.6208  -8.6177
    -8.6166  -8.5808  -8.5805  -8.5793  -8.5780  -8.5780  -8.5591  -8.5591
    -8.5512  -8.5512  -8.5276  -8.5239  -8.5227  -8.5047  -8.5045  -8.4982
    -8.4975  -8.4679  -8.4678  -8.4658  -8.4384  -8.4383  -8.4318  -8.4305
    -8.4303  -8.4293  -8.4262  -8.4261  -8.4258  -8.4256  -8.4047  -8.4047
    -8.3983  -8.3982  -8.3963  -8.3934  -8.3586  -8.3585  -8.3427  -8.3397
    -8.3321  -8.3321  -8.3128  -8.3098  -8.3097  -8.2287  -8.2219  -8.2202
    -8.2159  -8.2149  -8.2148  -8.1997  -8.1996  -8.1987  -8.1985  -8.1983
    -8.1982  -8.1552  -8.1504  -8.1488  -8.1482  -8.1368  -8.1362  -8.1357
    -8.1353  -8.1258  -8.1257  -8.1237  -8.1095  -8.1094  -8.0798  -8.0638
    -8.0582  -8.0137  -8.0137  -7.9932  -7.9643  -7.9570  -7.9522  -7.9521
    -7.9515  -7.9487  -7.9477  -7.9476  -7.9461  -7.9332  -7.8920  -7.8917
    -7.8514  -7.8509  -7.8457  -7.8368  -7.8012  -7.8011  -7.7707  -7.7677
    -7.7636  -7.7615  -7.7517  -7.7510  -7.7340  -7.7322  -7.7087  -7.7086
    -7.7040  -7.7039  -7.7015  -7.7000  -7.6497  -7.6493  -7.6350  -7.6349
    -7.6061  -7.5849  -7.5836  -7.5338  -7.5318  -7.5231  -7.5197  -7.5076
    -7.5073  -7.5063  -7.5056  -7.5042  -7.5040  -7.4858  -7.4856  -7.4778
    -7.4777  -7.4716  -7.4708  -7.4688  -7.4625  -7.4603  -7.4335  -7.4327
    -7.4176  -7.4169  -7.3737  -7.3644  -7.3642  -7.3528  -7.3527  -7.3515
    -7.3509  -7.3313  -7.3297  -7.2747  -7.2743  -7.2483  -7.2479  -7.1962
    -7.1956  -7.1787  -7.1781  -7.1653  -7.1598  -7.1472  -7.1470  -7.1431
    -7.1430  -7.1428  -7.1417  -7.1041  -7.1036  -7.0933  -7.0917  -7.0908
    -7.0837  -7.0836  -7.0726  -7.0721  -7.0444  -7.0441  -7.0174  -7.0134
    -6.9289  -6.9271  -6.9238  -6.9234  -6.8802  -6.8800  -6.8550  -6.8549
    -6.8276  -6.8263  -6.8258  -6.8120  -6.8084  -6.7960  -6.7953  -6.7631
    -6.7628  -6.7611  -6.7579  -6.7539  -6.7111  -6.7106  -6.6888  -6.6882
    -6.6662  -6.6635  -6.6631  -6.6613  -6.6347  -6.6344  -6.6298  -6.6031
    -6.6029  -6.5895  -6.5567  -6.5560  -6.5540  -6.5536  -6.5532  -6.5529
    -6.5519  -6.5516  -6.4932  -6.4924  -6.4519  -6.4516  -6.4276  -6.4231
    -6.4123  -6.4097  -6.4073  -6.3919  -6.3916  -6.3707  -6.3706  -6.3407
    -6.3350  -6.3341  -6.3333  -6.3270  -6.3256  -6.3026  -6.2937  -6.2460
    -6.2457  -6.2412  -6.2401  -6.2386  -6.2354  -6.2342  -6.2342  -6.1950
    -6.1932  -6.1898  -6.1538  -6.1507  -6.0980  -6.0880  -6.0864  -6.0415
    -6.0336  -6.0249  -6.0243  -6.0183  -6.0176  -6.0157  -6.0003  -5.9892
    -5.9840  -5.9442  -5.9355  -5.9286  -5.9040  -5.8980  -5.8959  -5.8904
    -5.8761  -5.8714  -5.8694  -5.8692  -5.8687  -5.8675  -5.8672  -5.8669
    -5.7972  -5.7958  -5.7953  -5.7924  -5.7412  -5.7366  -5.7179  -5.7173
    -5.6527  -5.6514  -5.6449  -5.6445  -5.5987  -5.5931  -5.5823  -5.5817
    -5.5700  -5.5698  -5.5583  -5.5429  -5.5343  -5.5322  -5.5310  -5.5218
    -5.5207  -5.5124  -5.5121  -5.5110  -5.5076  -5.4964  -5.4962  -5.4929
    -5.4929  -5.4632  -5.4626  -5.4623  -5.4096  -5.3629  -5.3607  -5.3307
    -5.3231  -5.3220  -5.3178  -5.3173  -5.3163  -5.3076  -5.2739  -5.2453
    -5.2436  -5.2244  -5.2189  -5.1943  -5.1936  -5.1932  -5.1737  -5.1732
    -5.0368  -5.0287  -5.0184  -5.0138  -5.0072  -4.9555  -4.9467  -4.9455
    -4.9309  -4.9130  -4.9072  -4.8425  -4.8375  -4.8280  -4.8243  -4.8155
    -4.7716  -4.7107  -4.6681  -4.6517  -0.1891  -0.1215  -0.0597  -0.0155
     0.0042   0.0176   0.0199   0.0373   0.0468   0.0778   0.0967   0.1042
     0.1295   0.1350   0.1414   0.1421   0.1447   0.1511   0.1633   0.1644
     0.1731

          k = 0.3333 0.3849 0.0000 (****** PWs)   bands (ev):

   -24.1196 -22.3290 -22.2977 -22.2894 -22.2687 -22.2242 -22.1965 -22.1935
   -22.1717 -22.1637 -22.1404 -22.1192 -22.0972 -22.0943 -22.0418 -22.0247
   -22.0171 -21.9906 -21.9681 -21.9275 -21.9228 -21.8991 -21.8978 -21.8941
   -21.8269 -21.8226 -21.8039 -21.8012 -21.7764 -21.7721 -21.7311 -21.7089
   -21.7059 -21.6814 -21.6523 -21.6296 -21.5869 -21.5832 -21.5563 -21.5407
   -21.5193 -21.5149 -21.5076 -21.4899 -21.4632 -21.4232 -21.4218 -21.3928
   -21.3692 -21.3518 -21.3302 -21.3267 -21.3016 -21.2757 -21.2596 -21.2305
   -21.2147 -21.2099 -21.2077 -21.1860 -21.1473 -21.1446 -21.1216 -21.1187
   -21.0962 -21.0713 -21.0340 -20.9905 -20.9875 -20.9682 -20.9655 -20.9482
   -20.9379 -20.9005 -20.8514 -20.8338 -20.8303 -20.8137 -20.7963 -20.7951
   -20.7896 -20.7888 -20.7706 -20.7201 -20.7075 -20.7072 -20.6922 -20.6776
   -20.6581 -20.6461 -20.6399 -20.6370 -20.6133 -20.5788 -20.5354 -20.5311
   -20.4855 -20.4768 -20.4531 -20.4529 -20.4435 -20.4353 -20.3876 -20.3871
   -20.3635 -20.3479 -20.3238 -20.3046 -20.3034 -20.2723 -20.2703 -20.2574
   -20.2484 -20.2310 -20.1819 -20.1806 -20.1709 -20.1613 -20.1572 -20.1379
   -20.1294 -20.1199 -20.0995 -20.0837 -20.0649 -20.0629 -20.0550 -20.0346
   -20.0192 -20.0011 -20.0002 -19.9975 -19.9555 -19.9549 -19.9388 -19.9182
   -19.8996 -19.8979 -19.8699 -19.8413 -19.8373 -19.8065 -19.7871 -19.7676
   -19.7637 -19.7626 -19.7385 -19.7145 -19.7112 -19.7101 -19.6966 -19.6691
   -19.6526 -19.6483 -19.6430 -19.6249 -19.6198 -19.6189 -19.6140 -19.6117
   -19.6101 -19.5888 -19.5629 -19.5391 -19.5380 -19.5371 -19.5292 -19.5210
   -19.5178 -19.5143 -19.4997 -19.4975 -19.4915 -19.4887 -19.4646 -19.4460
   -19.4417 -19.4066 -19.3969 -19.3932 -19.3743 -19.3617 -19.3596 -19.3588
   -19.3471 -19.3466 -19.3370 -19.3364 -19.3361 -19.3232 -19.3103 -19.2875
   -19.2841 -19.2784 -19.2741 -19.2667 -19.2601 -19.2509 -19.2498 -19.2376
   -19.2363 -19.2210 -19.2166 -19.2129 -19.2072 -19.2053 -19.2011 -19.1996
   -19.1987 -19.1980 -19.1913 -19.1908 -19.1670 -19.1581 -19.1463 -19.1414
   -19.1400 -19.1335 -19.1330 -19.1262 -19.1235 -19.0933 -19.0917 -19.0834
   -19.0760 -19.0697 -19.0660 -19.0617 -19.0604 -19.0578 -19.0234 -19.0012
   -18.9743 -18.9580 -18.9537 -18.9432 -18.9230 -18.9171 -18.9137 -18.9106
   -18.9100 -18.8677 -18.8597 -18.8526 -18.8509 -18.8420 -18.8342 -18.8065
   -18.7863 -18.7649 -18.7622 -18.7506 -18.7171 -18.7111 -18.7091 -18.6802
   -18.6729 -13.5403 -13.5225 -13.5144 -13.4973 -13.4969 -13.4885 -13.4814
   -13.4330 -13.4210 -13.4165 -13.3980 -13.3969 -13.3876 -13.3862 -13.3718
   -13.3352 -13.3334 -13.3240 -13.3187 -13.3057 -13.2981 -13.2817 -13.2766
   -13.2709 -13.2678 -13.2312 -13.2174 -13.2055 -13.1995 -13.1693 -13.1660
   -13.1443 -13.1117 -13.0988 -13.0980 -13.0933 -13.0866 -13.0651 -13.0538
   -13.0333 -13.0326 -13.0147 -13.0133 -12.9629 -12.9605 -12.9547 -12.9513
   -12.9454 -12.9413 -12.9386 -12.9324 -12.9161 -12.8973 -12.8958 -12.8808
   -12.8782 -12.8639 -12.8608 -12.8579 -12.8114 -12.7904 -12.7859 -12.7850
   -12.7756 -12.7753 -12.7744 -12.7499 -12.7390 -12.7343 -12.7253 -12.7244
   -12.7144 -12.7121 -12.6922 -12.6862 -12.6708 -12.6698 -12.6676 -12.6646
   -12.6634 -12.6583 -12.6458 -12.6420 -12.6285 -12.6271 -12.6155 -12.6044
   -12.6021 -12.5855 -12.5757 -12.5719 -12.5677 -12.5666 -12.5591 -12.5549
   -12.5424 -12.5406 -12.5060 -12.4772 -12.4688 -12.4646 -12.4524 -12.4174
   -12.4111 -12.4094 -12.4026 -12.3995 -12.3872 -12.3567 -12.3039 -12.2390
   -12.2323 -12.2196 -12.2087 -12.1231 -12.1096 -12.0988 -12.0741 -12.0364
   -12.0241 -11.9847 -11.9479 -11.9308 -11.9259 -11.9163 -11.9137 -11.9040
   -11.8954 -11.8906 -11.8777 -11.8762 -11.8633 -11.8611 -11.8401 -11.8044
   -11.7788 -11.7659 -11.7615 -11.7187 -11.6494 -11.6342 -11.6115 -11.6113
   -11.6032 -11.5997 -11.5546 -11.5478 -11.5344 -11.5323 -11.5319 -11.5227
   -11.5168 -11.5152 -11.5106 -11.5050 -11.5043 -11.4674 -11.4286 -11.4204
   -11.3540 -11.3223 -11.3155 -11.3076 -11.3061 -11.2997 -11.2546 -11.2093
   -11.2088 -11.1563 -11.1473 -11.1465 -11.1423 -11.1124 -11.0753 -11.0699
   -11.0665 -11.0020 -10.9980 -10.9525 -10.9187 -10.9174 -10.9033 -10.8894
   -10.8880 -10.8753 -10.8567 -10.8480 -10.8474 -10.8318 -10.7894 -10.7763
   -10.7731 -10.7175 -10.7092 -10.7000 -10.6845 -10.6831 -10.6825 -10.6802
   -10.6673 -10.6651 -10.6573 -10.6492 -10.6431 -10.6063 -10.5748 -10.5734
   -10.5575 -10.5543 -10.5371 -10.5077 -10.4843 -10.4165 -10.4000 -10.3680
   -10.3632 -10.3624 -10.3550 -10.3464 -10.3272 -10.3260 -10.3253 -10.2797
   -10.2753 -10.2643 -10.2498 -10.2212 -10.2189 -10.2147 -10.2068 -10.1979
   -10.1880 -10.1628 -10.1432 -10.1340 -10.1001 -10.0995 -10.0688 -10.0665
   -10.0626 -10.0317 -10.0316 -10.0069  -9.9914  -9.9711  -9.9708  -9.9514
    -9.9310  -9.9148  -9.8994  -9.8974  -9.8866  -9.8739  -9.8737  -9.8723
    -9.8664  -9.8638  -9.8524  -9.8522  -9.8338  -9.8256  -9.8222  -9.7734
    -9.7635  -9.7277  -9.7212  -9.7157  -9.7133  -9.6938  -9.6834  -9.6764
    -9.6608  -9.6530  -9.6515  -9.6455  -9.6226  -9.6212  -9.6131  -9.6127
    -9.6111  -9.5934  -9.5904  -9.5702  -9.5685  -9.5607  -9.5497  -9.5428
    -9.5419  -9.5185  -9.4949  -9.4848  -9.4738  -9.4619  -9.4518  -9.4501
    -9.4488  -9.4482  -9.4473  -9.4188  -9.4058  -9.3880  -9.3836  -9.3832
    -9.3817  -9.3810  -9.3793  -9.3634  -9.3555  -9.3517  -9.3347  -9.3311
    -9.3278  -9.3268  -9.3250  -9.3187  -9.3144  -9.3113  -9.3077  -9.3025
    -9.2933  -9.2709  -9.2406  -9.2308  -9.2285  -9.2217  -9.2155  -9.2089
    -9.1973  -9.1967  -9.1911  -9.1880  -9.1812  -9.1796  -9.1610  -9.1605
    -9.1577  -9.1549  -9.1541  -9.1518  -9.1513  -9.1502  -9.1137  -9.1081
    -9.0982  -9.0766  -9.0678  -9.0639  -9.0536  -9.0528  -9.0460  -9.0426
    -9.0419  -9.0330  -9.0315  -9.0210  -9.0041  -8.9978  -8.9916  -8.9663
    -8.9644  -8.9606  -8.9604  -8.9597  -8.9592  -8.9552  -8.9398  -8.9371
    -8.9126  -8.9031  -8.8967  -8.8932  -8.8903  -8.8708  -8.8664  -8.8630
    -8.8618  -8.8557  -8.8407  -8.8396  -8.8376  -8.8269  -8.8253  -8.8143
    -8.8100  -8.8060  -8.8034  -8.8025  -8.8009  -8.7957  -8.7910  -8.7854
    -8.7722  -8.7662  -8.7616  -8.7567  -8.7509  -8.7449  -8.7346  -8.7253
    -8.7148  -8.6985  -8.6942  -8.6864  -8.6800  -8.6790  -8.6781  -8.6765
    -8.6760  -8.6633  -8.6594  -8.6543  -8.6454  -8.6389  -8.6209  -8.6149
    -8.6137  -8.6125  -8.6118  -8.6066  -8.5991  -8.5986  -8.5937  -8.5805
    -8.5613  -8.5532  -8.5530  -8.5497  -8.5329  -8.5171  -8.5137  -8.5094
    -8.5042  -8.4853  -8.4840  -8.4831  -8.4797  -8.4675  -8.4666  -8.4572
    -8.4246  -8.4176  -8.4078  -8.3958  -8.3926  -8.3888  -8.3881  -8.3859
    -8.3564  -8.3485  -8.3439  -8.3413  -8.3301  -8.3213  -8.3073  -8.3072
    -8.3042  -8.3027  -8.2992  -8.2970  -8.2699  -8.2691  -8.2658  -8.2640
    -8.2610  -8.2461  -8.2334  -8.2332  -8.2083  -8.2012  -8.1998  -8.1972
    -8.1850  -8.1630  -8.1623  -8.1489  -8.1340  -8.0914  -8.0839  -8.0606
    -8.0595  -8.0591  -8.0548  -8.0516  -8.0451  -8.0336  -8.0163  -8.0100
    -8.0085  -7.9810  -7.9725  -7.9720  -7.9658  -7.9629  -7.9568  -7.9561
    -7.9550  -7.9496  -7.9062  -7.9003  -7.8937  -7.8853  -7.8794  -7.8784
    -7.8686  -7.8636  -7.8405  -7.8341  -7.8203  -7.8173  -7.8124  -7.8100
    -7.8090  -7.8084  -7.8003  -7.7973  -7.7845  -7.7791  -7.7568  -7.7198
    -7.7139  -7.7069  -7.7064  -7.6963  -7.6950  -7.6946  -7.6719  -7.6592
    -7.6558  -7.6281  -7.6203  -7.6129  -7.6124  -7.6103  -7.6028  -7.5972
    -7.5689  -7.5668  -7.5569  -7.5568  -7.5219  -7.5209  -7.5162  -7.5067
    -7.4682  -7.4566  -7.4544  -7.4514  -7.3941  -7.3855  -7.3741  -7.3729
    -7.3653  -7.3443  -7.3432  -7.3424  -7.3411  -7.3358  -7.3320  -7.3269
    -7.3160  -7.3073  -7.2701  -7.2618  -7.2498  -7.2476  -7.2444  -7.2437
    -7.2162  -7.2022  -7.1955  -7.1790  -7.1744  -7.1583  -7.1508  -7.1494
    -7.1376  -7.1319  -7.1309  -7.1307  -7.0893  -7.0848  -7.0665  -7.0563
    -7.0515  -7.0266  -6.9924  -6.9579  -6.9578  -6.9531  -6.9511  -6.9457
    -6.9273  -6.9241  -6.9217  -6.9197  -6.8992  -6.8981  -6.8841  -6.8810
    -6.8788  -6.8730  -6.8601  -6.8413  -6.8204  -6.7950  -6.7935  -6.7784
    -6.7774  -6.7759  -6.7701  -6.7609  -6.7517  -6.7466  -6.7230  -6.7205
    -6.7025  -6.7013  -6.6933  -6.6794  -6.6661  -6.6393  -6.6369  -6.6352
    -6.6172  -6.6139  -6.5940  -6.5909  -6.5781  -6.5711  -6.5569  -6.5510
    -6.5502  -6.5332  -6.5149  -6.4730  -6.4614  -6.4497  -6.4447  -6.4419
    -6.4247  -6.3976  -6.3824  -6.3584  -6.3549  -6.3538  -6.3520  -6.3153
    -6.3147  -6.3059  -6.2887  -6.2858  -6.2766  -6.2659  -6.2630  -6.2510
    -6.2390  -6.2174  -6.2054  -6.1970  -6.1839  -6.1734  -6.1618  -6.1597
    -6.1466  -6.1450  -6.1431  -6.1354  -6.1243  -6.1223  -6.1062  -6.0952
    -6.0726  -6.0637  -6.0594  -6.0471  -6.0298  -6.0210  -6.0193  -6.0181
    -6.0085  -6.0022  -5.9999  -5.9879  -5.9710  -5.9618  -5.9574  -5.9491
    -5.9315  -5.9120  -5.8939  -5.8709  -5.8204  -5.8135  -5.7936  -5.7690
    -5.7624  -5.7618  -5.7447  -5.7255  -5.7242  -5.7230  -5.7159  -5.7131
    -5.6896  -5.6669  -5.6492  -5.6268  -5.6191  -5.6147  -5.6043  -5.5973
    -5.5750  -5.5744  -5.5617  -5.5500  -5.5405  -5.5276  -5.5259  -5.5242
    -5.5184  -5.5130  -5.5129  -5.5074  -5.5023  -5.4957  -5.4947  -5.4497
    -5.4347  -5.4249  -5.4218  -5.4183  -5.4155  -5.4152  -5.3872  -5.3850
    -5.3432  -5.3418  -5.3312  -5.3171  -5.3132  -5.3127  -5.3076  -5.2935
    -5.2839  -5.2326  -5.2108  -5.1609  -5.1380  -5.1215  -5.1167  -5.0812
    -5.0674  -5.0664  -5.0575  -5.0570  -4.9858  -4.9778  -4.9692  -4.9671
    -4.9543  -4.9400  -4.8926  -4.8591  -4.8268  -4.8205  -4.8021  -4.7439
    -4.7372  -4.7348  -4.6860  -4.6731  -0.1837  -0.1115  -0.0895  -0.0597
     0.0093   0.0495   0.0552   0.0589   0.0791   0.0907   0.0981   0.1038
     0.1081   0.1241   0.1342   0.1553   0.1598   0.1642   0.1664   0.1722
     0.1753

     highest occupied, lowest unoccupied level (ev):    -4.6517   -0.1925

!    total energy              =  -10249.33168172 Ry
     total all-electron energy =    -40959.943808 Ry
     estimated scf accuracy    <       0.00000011 Ry

     The total energy is the sum of the following terms:
     one-electron contribution =  -90125.44501754 Ry
     hartree contribution      =   45474.22576411 Ry
     xc contribution           =   -2267.18201053 Ry
     ewald contribution        =   40052.78249585 Ry
     one-center paw contrib.   =   -3383.71291361 Ry

     convergence has been achieved in  11 iterations

     Writing all to output data dir ./hBN_water_Oup_Hdown.save/

     init_run     :    808.03s CPU    815.70s WALL (       1 calls)
     electrons    :  20842.33s CPU  20947.03s WALL (       1 calls)

     Called by init_run:
     wfcinit      :    782.88s CPU    789.62s WALL (       1 calls)
     potinit      :      3.34s CPU      3.42s WALL (       1 calls)
     hinit0       :      5.33s CPU      5.48s WALL (       1 calls)

     Called by electrons:
     c_bands      :  19113.65s CPU  19198.25s WALL (      11 calls)
     sum_band     :   1699.87s CPU   1712.14s WALL (      11 calls)
     v_of_rho     :      5.78s CPU      5.90s WALL (      12 calls)
     newd         :     21.27s CPU     28.93s WALL (      12 calls)
     PAW_pot      :      1.91s CPU      1.92s WALL (      12 calls)
     mix_rho      :      1.71s CPU      1.75s WALL (      11 calls)

     Called by c_bands:
     init_us_2    :     93.20s CPU     94.21s WALL (      92 calls)
     init_us_2:cp :     93.20s CPU     94.21s WALL (      92 calls)
     cegterg      :  19016.05s CPU  19097.71s WALL (      51 calls)

     Called by *egterg:
     cdiaghg      :    168.02s CPU    173.57s WALL (     443 calls)
     h_psi        :  10140.34s CPU  10181.37s WALL (     447 calls)
     s_psi        :   2828.97s CPU   2833.52s WALL (     447 calls)
     g_psi        :     15.15s CPU     15.18s WALL (     392 calls)

     Called by h_psi:
     h_psi:calbec :   2939.10s CPU   2942.37s WALL (     447 calls)
     vloc_psi     :   4331.88s CPU   4344.46s WALL (     447 calls)
     add_vuspsi   :   2839.11s CPU   2849.79s WALL (     447 calls)

     General routines
     calbec       :   3718.88s CPU   3722.70s WALL (     491 calls)
     fft          :      3.98s CPU      4.14s WALL (     132 calls)
     ffts         :      0.29s CPU      0.30s WALL (      11 calls)
     fftw         :   4246.81s CPU   4258.38s WALL (  358388 calls)

     Parallel routines

     PWSCF        :      6h 2m CPU      6h 5m WALL


   This run was terminated on:   2: 6:14  26Oct2022            

=------------------------------------------------------------------------------=
   JOB DONE.
=------------------------------------------------------------------------------=
