
     Program PWSCF v.7.1 starts on 25Oct2022 at 20: 0:45 
        Git branch: HEAD
        Last git commit: 564a7b486665e8dd0223d6e514b84195d1a96c10
        Last git commit date: Tue Jun 14 16:16:48 2022 +0000
        Last git commit subject: Merge branch 'update_version_number' into 'develop

     This program is part of the open-source Quantum ESPRESSO suite
     for quantum simulation of materials; please cite
         "P. Giannozzi et al., J. Phys.:Condens. Matter 21 395502 (2009);
         "P. Giannozzi et al., J. Phys.:Condens. Matter 29 465901 (2017);
         "P. Giannozzi et al., J. Chem. Phys. 152 154105 (2020);
          URL http://www.quantum-espresso.org", 
     in publications or presentations arising from this work. More details at
     http://www.quantum-espresso.org/quote

     Parallel version (MPI & OpenMP), running on     128 processor cores
     Number of MPI processes:               128
     Threads/MPI process:                     1

     MPI processes distributed on     1 nodes
     1001060 MiB available memory on the printing compute node when the environment starts

     Reading input from scf.in

     Current dimensions of program PWSCF are:
     Max number of different atomic species (ntypx) = 10
     Max number of k-points (npk) =  40000
     Max angular momentum in pseudopotentials (lmaxx) =  4
     file N.pbe-n-kjpaw_psl.1.0.0.UPF: wavefunction(s)  2S renormalized
     file O.pbe-n-kjpaw_psl.1.0.0.UPF: wavefunction(s)  2S 2P renormalized
     file H.pbe-kjpaw_psl.1.0.0.UPF: wavefunction(s)  1S renormalized
     Message from routine setup:
     using ibrav=0 with symmetry is DISCOURAGED, use correct ibrav instead

     R & G space division:  proc/nbgrp/npool/nimage =     128
     Subspace diagonalization in iterative solution of the eigenvalue problem:
     one sub-group per band group will be used
     scalapack distributed-memory algorithm (size of sub-group: 10* 10 procs)


     Parallelization info
     --------------------
     sticks:   dense  smooth     PW     G-vecs:    dense   smooth      PW
     Min         635     635    160               109655   109655   13948
     Max         636     636    161               109660   109660   13955
     Sum       81311   81311  20563             14036177 14036177 1785661

     Using Slab Decomposition



     bravais-lattice index     =            0
     lattice parameter (alat)  =      75.7265  a.u.
     unit-cell volume          =  281543.9584 (a.u.)^3
     number of atoms/cell      =          515
     number of atomic types    =            4
     number of electrons       =      2056.00
     number of Kohn-Sham states=         1049
     kinetic-energy cutoff     =      51.4490  Ry
     charge density cutoff     =     205.7961  Ry
     scf convergence threshold =      1.0E-06
     mixing beta               =       0.7000
     number of iterations used =            8  plain     mixing
     Exchange-correlation= SLA  PW   PBX  PBC
                           (   1   4   3   4   0   0   0)

     celldm(1)=  75.726466  celldm(2)=   0.000000  celldm(3)=   0.000000
     celldm(4)=   0.000000  celldm(5)=   0.000000  celldm(6)=   0.000000

     crystal axes: (cart. coord. in units of alat)
               a(1) = (   1.000000   0.000000   0.000000 )  
               a(2) = (   0.000000   0.866026   0.000000 )  
               a(3) = (   0.000000   0.000000   0.748639 )  

     reciprocal axes: (cart. coord. in units 2 pi/alat)
               b(1) = (  1.000000  0.000000  0.000000 )  
               b(2) = (  0.000000  1.154700  0.000000 )  
               b(3) = (  0.000000  0.000000  1.335757 )  


     PseudoPot. # 1 for B  read from file:
     ./B.pbe-n-kjpaw_psl.1.0.0.UPF
     MD5 check sum: 8c825a5969375aca5c2c6ad5945b3059
     Pseudo is Projector augmented-wave + core cor, Zval =  3.0
     Generated using &quot;atomic&quot; code by A. Dal Corso  v.6.3
     Shape of augmentation charge: PSQ
     Using radial grid of 1059 points,  4 beta functions with: 
                l(1) =   0
                l(2) =   0
                l(3) =   1
                l(4) =   1
     Q(r) pseudized with 0 coefficients 


     PseudoPot. # 2 for N  read from file:
     ./N.pbe-n-kjpaw_psl.1.0.0.UPF
     MD5 check sum: 14c48229446f9f2d411169a3abcbc3fa
     Pseudo is Projector augmented-wave + core cor, Zval =  5.0
     Generated using &quot;atomic&quot; code by A. Dal Corso  v.6.3
     Shape of augmentation charge: PSQ
     Using radial grid of 1085 points,  4 beta functions with: 
                l(1) =   0
                l(2) =   0
                l(3) =   1
                l(4) =   1
     Q(r) pseudized with 0 coefficients 


     PseudoPot. # 3 for O  read from file:
     ./O.pbe-n-kjpaw_psl.1.0.0.UPF
     MD5 check sum: e99d9cef9b487d1ca56f5b95ecd0fd7a
     Pseudo is Projector augmented-wave + core cor, Zval =  6.0
     Generated using &quot;atomic&quot; code by A. Dal Corso  v.6.3
     Shape of augmentation charge: PSQ
     Using radial grid of 1095 points,  4 beta functions with: 
                l(1) =   0
                l(2) =   0
                l(3) =   1
                l(4) =   1
     Q(r) pseudized with 0 coefficients 


     PseudoPot. # 4 for H  read from file:
     ./H.pbe-kjpaw_psl.1.0.0.UPF
     MD5 check sum: d81a744832360e4a8af0b0b5b123bc2a
     Pseudo is Projector augmented-wave, Zval =  1.0
     Generated using &quot;atomic&quot; code by A. Dal Corso  v.6.3MaX
     Shape of augmentation charge: PSQ
     Using radial grid of  929 points,  2 beta functions with: 
                l(1) =   0
                l(2) =   0
     Q(r) pseudized with 0 coefficients 


     atomic species   valence    mass     pseudopotential
        B              3.00    10.81100     B ( 1.00)
        N              5.00    14.00670     N ( 1.00)
        O              6.00    15.99900     O ( 1.00)
        H              1.00     1.00784     H ( 1.00)

      2 Sym. Ops. (no inversion) found ( 1 have fractional translation)



   Cartesian axes

     site n.     atom                  positions (alat units)
         1           B   tau(   1) = (   0.9687500   0.0180422   0.1497278  )
         2           B   tau(   2) = (   0.9687500   0.1262954   0.1497278  )
         3           B   tau(   3) = (   0.9687500   0.2345486   0.1497278  )
         4           B   tau(   4) = (   0.9687500   0.3428018   0.1497278  )
         5           B   tau(   5) = (   0.9687500   0.4510550   0.1497278  )
         6           B   tau(   6) = (   0.9687500   0.5593082   0.1497278  )
         7           B   tau(   7) = (   0.9687500   0.6675614   0.1497278  )
         8           B   tau(   8) = (   0.9687500   0.7758146   0.1497278  )
         9           B   tau(   9) = (   0.0937500   0.0180422   0.1497278  )
        10           B   tau(  10) = (   0.0937500   0.1262954   0.1497278  )
        11           B   tau(  11) = (   0.0937500   0.2345486   0.1497278  )
        12           B   tau(  12) = (   0.0937500   0.3428018   0.1497278  )
        13           B   tau(  13) = (   0.0937500   0.4510550   0.1497278  )
        14           B   tau(  14) = (   0.0937500   0.5593082   0.1497278  )
        15           B   tau(  15) = (   0.0937500   0.6675614   0.1497278  )
        16           B   tau(  16) = (   0.0937500   0.7758146   0.1497278  )
        17           B   tau(  17) = (   0.2187500   0.0180422   0.1497278  )
        18           B   tau(  18) = (   0.2187500   0.1262954   0.1497278  )
        19           B   tau(  19) = (   0.2187500   0.2345486   0.1497278  )
        20           B   tau(  20) = (   0.2187500   0.3428018   0.1497278  )
        21           B   tau(  21) = (   0.2187500   0.4510550   0.1497278  )
        22           B   tau(  22) = (   0.2187500   0.5593082   0.1497278  )
        23           B   tau(  23) = (   0.2187500   0.6675614   0.1497278  )
        24           B   tau(  24) = (   0.2187500   0.7758146   0.1497278  )
        25           B   tau(  25) = (   0.3437500   0.0180422   0.1497278  )
        26           B   tau(  26) = (   0.3437500   0.1262954   0.1497278  )
        27           B   tau(  27) = (   0.3437500   0.2345486   0.1497278  )
        28           B   tau(  28) = (   0.3437500   0.3428018   0.1497278  )
        29           B   tau(  29) = (   0.3437500   0.4510550   0.1497278  )
        30           B   tau(  30) = (   0.3437500   0.5593082   0.1497278  )
        31           B   tau(  31) = (   0.3437500   0.6675614   0.1497278  )
        32           B   tau(  32) = (   0.3437500   0.7758146   0.1497278  )
        33           B   tau(  33) = (   0.4687500   0.0180422   0.1497278  )
        34           B   tau(  34) = (   0.4687500   0.1262954   0.1497278  )
        35           B   tau(  35) = (   0.4687500   0.2345486   0.1497278  )
        36           B   tau(  36) = (   0.4687500   0.3428018   0.1497278  )
        37           B   tau(  37) = (   0.4687500   0.4510550   0.1497278  )
        38           B   tau(  38) = (   0.4687500   0.5593082   0.1497278  )
        39           B   tau(  39) = (   0.4687500   0.6675614   0.1497278  )
        40           B   tau(  40) = (   0.4687500   0.7758146   0.1497278  )
        41           B   tau(  41) = (   0.5937500   0.0180422   0.1497278  )
        42           B   tau(  42) = (   0.5937500   0.1262954   0.1497278  )
        43           B   tau(  43) = (   0.5937500   0.2345486   0.1497278  )
        44           B   tau(  44) = (   0.5937500   0.3428018   0.1497278  )
        45           B   tau(  45) = (   0.5937500   0.4510550   0.1497278  )
        46           B   tau(  46) = (   0.5937500   0.5593082   0.1497278  )
        47           B   tau(  47) = (   0.5937500   0.6675614   0.1497278  )
        48           B   tau(  48) = (   0.5937500   0.7758146   0.1497278  )
        49           B   tau(  49) = (   0.7187500   0.0180422   0.1497278  )
        50           B   tau(  50) = (   0.7187500   0.1262954   0.1497278  )
        51           B   tau(  51) = (   0.7187500   0.2345486   0.1497278  )
        52           B   tau(  52) = (   0.7187500   0.3428018   0.1497278  )
        53           B   tau(  53) = (   0.7187500   0.4510550   0.1497278  )
        54           B   tau(  54) = (   0.7187500   0.5593082   0.1497278  )
        55           B   tau(  55) = (   0.7187500   0.6675614   0.1497278  )
        56           B   tau(  56) = (   0.7187500   0.7758146   0.1497278  )
        57           B   tau(  57) = (   0.8437500   0.0180422   0.1497278  )
        58           B   tau(  58) = (   0.8437500   0.1262954   0.1497278  )
        59           B   tau(  59) = (   0.8437500   0.2345486   0.1497278  )
        60           B   tau(  60) = (   0.8437500   0.3428018   0.1497278  )
        61           B   tau(  61) = (   0.8437500   0.4510550   0.1497278  )
        62           B   tau(  62) = (   0.8437500   0.5593082   0.1497278  )
        63           B   tau(  63) = (   0.8437500   0.6675614   0.1497278  )
        64           B   tau(  64) = (   0.8437500   0.7758146   0.1497278  )
        65           B   tau(  65) = (   0.0312500   0.0180422   0.1497278  )
        66           B   tau(  66) = (   0.0312500   0.1262954   0.1497278  )
        67           B   tau(  67) = (   0.0312500   0.2345486   0.1497278  )
        68           B   tau(  68) = (   0.0312500   0.3428018   0.1497278  )
        69           B   tau(  69) = (   0.0312500   0.4510550   0.1497278  )
        70           B   tau(  70) = (   0.0312500   0.5593082   0.1497278  )
        71           B   tau(  71) = (   0.0312500   0.6675614   0.1497278  )
        72           B   tau(  72) = (   0.0312500   0.7758146   0.1497278  )
        73           B   tau(  73) = (   0.1562500   0.0180422   0.1497278  )
        74           B   tau(  74) = (   0.1562500   0.1262954   0.1497278  )
        75           B   tau(  75) = (   0.1562500   0.2345486   0.1497278  )
        76           B   tau(  76) = (   0.1562500   0.3428018   0.1497278  )
        77           B   tau(  77) = (   0.1562500   0.4510550   0.1497278  )
        78           B   tau(  78) = (   0.1562500   0.5593082   0.1497278  )
        79           B   tau(  79) = (   0.1562500   0.6675614   0.1497278  )
        80           B   tau(  80) = (   0.1562500   0.7758146   0.1497278  )
        81           B   tau(  81) = (   0.2812500   0.0180422   0.1497278  )
        82           B   tau(  82) = (   0.2812500   0.1262954   0.1497278  )
        83           B   tau(  83) = (   0.2812500   0.2345486   0.1497278  )
        84           B   tau(  84) = (   0.2812500   0.3428018   0.1497278  )
        85           B   tau(  85) = (   0.2812500   0.4510550   0.1497278  )
        86           B   tau(  86) = (   0.2812500   0.5593082   0.1497278  )
        87           B   tau(  87) = (   0.2812500   0.6675614   0.1497278  )
        88           B   tau(  88) = (   0.2812500   0.7758146   0.1497278  )
        89           B   tau(  89) = (   0.4062500   0.0180422   0.1497278  )
        90           B   tau(  90) = (   0.4062500   0.1262954   0.1497278  )
        91           B   tau(  91) = (   0.4062500   0.2345486   0.1497278  )
        92           B   tau(  92) = (   0.4062500   0.3428018   0.1497278  )
        93           B   tau(  93) = (   0.4062500   0.4510550   0.1497278  )
        94           B   tau(  94) = (   0.4062500   0.5593082   0.1497278  )
        95           B   tau(  95) = (   0.4062500   0.6675614   0.1497278  )
        96           B   tau(  96) = (   0.4062500   0.7758146   0.1497278  )
        97           B   tau(  97) = (   0.5312500   0.0180422   0.1497278  )
        98           B   tau(  98) = (   0.5312500   0.1262954   0.1497278  )
        99           B   tau(  99) = (   0.5312500   0.2345486   0.1497278  )
       100           B   tau( 100) = (   0.5312500   0.3428018   0.1497278  )
       101           B   tau( 101) = (   0.5312500   0.4510550   0.1497278  )
       102           B   tau( 102) = (   0.5312500   0.5593082   0.1497278  )
       103           B   tau( 103) = (   0.5312500   0.6675614   0.1497278  )
       104           B   tau( 104) = (   0.5312500   0.7758146   0.1497278  )
       105           B   tau( 105) = (   0.6562500   0.0180422   0.1497278  )
       106           B   tau( 106) = (   0.6562500   0.1262954   0.1497278  )
       107           B   tau( 107) = (   0.6562500   0.2345486   0.1497278  )
       108           B   tau( 108) = (   0.6562500   0.3428018   0.1497278  )
       109           B   tau( 109) = (   0.6562500   0.4510550   0.1497278  )
       110           B   tau( 110) = (   0.6562500   0.5593082   0.1497278  )
       111           B   tau( 111) = (   0.6562500   0.6675614   0.1497278  )
       112           B   tau( 112) = (   0.6562500   0.7758146   0.1497278  )
       113           B   tau( 113) = (   0.7812500   0.0180422   0.1497278  )
       114           B   tau( 114) = (   0.7812500   0.1262954   0.1497278  )
       115           B   tau( 115) = (   0.7812500   0.2345486   0.1497278  )
       116           B   tau( 116) = (   0.7812500   0.3428018   0.1497278  )
       117           B   tau( 117) = (   0.7812500   0.4510550   0.1497278  )
       118           B   tau( 118) = (   0.7812500   0.5593082   0.1497278  )
       119           B   tau( 119) = (   0.7812500   0.6675614   0.1497278  )
       120           B   tau( 120) = (   0.7812500   0.7758146   0.1497278  )
       121           B   tau( 121) = (   0.9062500   0.0180422   0.1497278  )
       122           B   tau( 122) = (   0.9062500   0.1262954   0.1497278  )
       123           B   tau( 123) = (   0.9062500   0.2345486   0.1497278  )
       124           B   tau( 124) = (   0.9062500   0.3428018   0.1497278  )
       125           B   tau( 125) = (   0.9062500   0.4510550   0.1497278  )
       126           B   tau( 126) = (   0.9062500   0.5593082   0.1497278  )
       127           B   tau( 127) = (   0.9062500   0.6675614   0.1497278  )
       128           B   tau( 128) = (   0.9062500   0.7758146   0.1497278  )
       129           B   tau( 129) = (   0.0000000   0.8299412   0.1497278  )
       130           B   tau( 130) = (   0.0000000   0.0721688   0.1497278  )
       131           B   tau( 131) = (   0.0000000   0.1804220   0.1497278  )
       132           B   tau( 132) = (   0.0000000   0.2886752   0.1497278  )
       133           B   tau( 133) = (   0.0000000   0.3969284   0.1497278  )
       134           B   tau( 134) = (   0.0000000   0.5051816   0.1497278  )
       135           B   tau( 135) = (   0.0000000   0.6134348   0.1497278  )
       136           B   tau( 136) = (   0.0000000   0.7216880   0.1497278  )
       137           B   tau( 137) = (   0.1250000   0.8299412   0.1497278  )
       138           B   tau( 138) = (   0.1250000   0.0721688   0.1497278  )
       139           B   tau( 139) = (   0.1250000   0.1804220   0.1497278  )
       140           B   tau( 140) = (   0.1250000   0.2886752   0.1497278  )
       141           B   tau( 141) = (   0.1250000   0.3969284   0.1497278  )
       142           B   tau( 142) = (   0.1250000   0.5051816   0.1497278  )
       143           B   tau( 143) = (   0.1250000   0.6134348   0.1497278  )
       144           B   tau( 144) = (   0.1250000   0.7216880   0.1497278  )
       145           B   tau( 145) = (   0.2500000   0.8299412   0.1497278  )
       146           B   tau( 146) = (   0.2500000   0.0721688   0.1497278  )
       147           B   tau( 147) = (   0.2500000   0.1804220   0.1497278  )
       148           B   tau( 148) = (   0.2500000   0.2886752   0.1497278  )
       149           B   tau( 149) = (   0.2500000   0.3969284   0.1497278  )
       150           B   tau( 150) = (   0.2500000   0.5051816   0.1497278  )
       151           B   tau( 151) = (   0.2500000   0.6134348   0.1497278  )
       152           B   tau( 152) = (   0.2500000   0.7216880   0.1497278  )
       153           B   tau( 153) = (   0.3750000   0.8299412   0.1497278  )
       154           B   tau( 154) = (   0.3750000   0.0721688   0.1497278  )
       155           B   tau( 155) = (   0.3750000   0.1804220   0.1497278  )
       156           B   tau( 156) = (   0.3750000   0.2886752   0.1497278  )
       157           B   tau( 157) = (   0.3750000   0.3969284   0.1497278  )
       158           B   tau( 158) = (   0.3750000   0.5051816   0.1497278  )
       159           B   tau( 159) = (   0.3750000   0.6134348   0.1497278  )
       160           B   tau( 160) = (   0.3750000   0.7216880   0.1497278  )
       161           B   tau( 161) = (   0.5000000   0.8299412   0.1497278  )
       162           B   tau( 162) = (   0.5000000   0.0721688   0.1497278  )
       163           B   tau( 163) = (   0.5000000   0.1804220   0.1497278  )
       164           B   tau( 164) = (   0.5000000   0.2886752   0.1497278  )
       165           B   tau( 165) = (   0.5000000   0.3969284   0.1497278  )
       166           B   tau( 166) = (   0.5000000   0.5051816   0.1497278  )
       167           B   tau( 167) = (   0.5000000   0.6134348   0.1497278  )
       168           B   tau( 168) = (   0.5000000   0.7216880   0.1497278  )
       169           B   tau( 169) = (   0.6250000   0.8299412   0.1497278  )
       170           B   tau( 170) = (   0.6250000   0.0721688   0.1497278  )
       171           B   tau( 171) = (   0.6250000   0.1804220   0.1497278  )
       172           B   tau( 172) = (   0.6250000   0.2886752   0.1497278  )
       173           B   tau( 173) = (   0.6250000   0.3969284   0.1497278  )
       174           B   tau( 174) = (   0.6250000   0.5051816   0.1497278  )
       175           B   tau( 175) = (   0.6250000   0.6134348   0.1497278  )
       176           B   tau( 176) = (   0.6250000   0.7216880   0.1497278  )
       177           B   tau( 177) = (   0.7500000   0.8299412   0.1497278  )
       178           B   tau( 178) = (   0.7500000   0.0721688   0.1497278  )
       179           B   tau( 179) = (   0.7500000   0.1804220   0.1497278  )
       180           B   tau( 180) = (   0.7500000   0.2886752   0.1497278  )
       181           B   tau( 181) = (   0.7500000   0.3969284   0.1497278  )
       182           B   tau( 182) = (   0.7500000   0.5051816   0.1497278  )
       183           B   tau( 183) = (   0.7500000   0.6134348   0.1497278  )
       184           B   tau( 184) = (   0.7500000   0.7216880   0.1497278  )
       185           B   tau( 185) = (   0.8750000   0.8299412   0.1497278  )
       186           B   tau( 186) = (   0.8750000   0.0721688   0.1497278  )
       187           B   tau( 187) = (   0.8750000   0.1804220   0.1497278  )
       188           B   tau( 188) = (   0.8750000   0.2886752   0.1497278  )
       189           B   tau( 189) = (   0.8750000   0.3969284   0.1497278  )
       190           B   tau( 190) = (   0.8750000   0.5051816   0.1497278  )
       191           B   tau( 191) = (   0.8750000   0.6134348   0.1497278  )
       192           B   tau( 192) = (   0.8750000   0.7216880   0.1497278  )
       193           B   tau( 193) = (   0.0625000   0.8299412   0.1497278  )
       194           B   tau( 194) = (   0.0625000   0.0721688   0.1497278  )
       195           B   tau( 195) = (   0.0625000   0.1804220   0.1497278  )
       196           B   tau( 196) = (   0.0625000   0.2886752   0.1497278  )
       197           B   tau( 197) = (   0.0625000   0.3969284   0.1497278  )
       198           B   tau( 198) = (   0.0625000   0.5051816   0.1497278  )
       199           B   tau( 199) = (   0.0625000   0.6134348   0.1497278  )
       200           B   tau( 200) = (   0.0625000   0.7216880   0.1497278  )
       201           B   tau( 201) = (   0.1875000   0.8299412   0.1497278  )
       202           B   tau( 202) = (   0.1875000   0.0721688   0.1497278  )
       203           B   tau( 203) = (   0.1875000   0.1804220   0.1497278  )
       204           B   tau( 204) = (   0.1875000   0.2886752   0.1497278  )
       205           B   tau( 205) = (   0.1875000   0.3969284   0.1497278  )
       206           B   tau( 206) = (   0.1875000   0.5051816   0.1497278  )
       207           B   tau( 207) = (   0.1875000   0.6134348   0.1497278  )
       208           B   tau( 208) = (   0.1875000   0.7216880   0.1497278  )
       209           B   tau( 209) = (   0.3125000   0.8299412   0.1497278  )
       210           B   tau( 210) = (   0.3125000   0.0721688   0.1497278  )
       211           B   tau( 211) = (   0.3125000   0.1804220   0.1497278  )
       212           B   tau( 212) = (   0.3125000   0.2886752   0.1497278  )
       213           B   tau( 213) = (   0.3125000   0.3969284   0.1497278  )
       214           B   tau( 214) = (   0.3125000   0.5051816   0.1497278  )
       215           B   tau( 215) = (   0.3125000   0.6134348   0.1497278  )
       216           B   tau( 216) = (   0.3125000   0.7216880   0.1497278  )
       217           B   tau( 217) = (   0.4375000   0.8299412   0.1497278  )
       218           B   tau( 218) = (   0.4375000   0.0721688   0.1497278  )
       219           B   tau( 219) = (   0.4375000   0.1804220   0.1497278  )
       220           B   tau( 220) = (   0.4375000   0.2886752   0.1497278  )
       221           B   tau( 221) = (   0.4375000   0.3969284   0.1497278  )
       222           B   tau( 222) = (   0.4375000   0.5051816   0.1497278  )
       223           B   tau( 223) = (   0.4375000   0.6134348   0.1497278  )
       224           B   tau( 224) = (   0.4375000   0.7216880   0.1497278  )
       225           B   tau( 225) = (   0.5625000   0.8299412   0.1497278  )
       226           B   tau( 226) = (   0.5625000   0.0721688   0.1497278  )
       227           B   tau( 227) = (   0.5625000   0.1804220   0.1497278  )
       228           B   tau( 228) = (   0.5625000   0.2886752   0.1497278  )
       229           B   tau( 229) = (   0.5625000   0.3969284   0.1497278  )
       230           B   tau( 230) = (   0.5625000   0.5051816   0.1497278  )
       231           B   tau( 231) = (   0.5625000   0.6134348   0.1497278  )
       232           B   tau( 232) = (   0.5625000   0.7216880   0.1497278  )
       233           B   tau( 233) = (   0.6875000   0.8299412   0.1497278  )
       234           B   tau( 234) = (   0.6875000   0.0721688   0.1497278  )
       235           B   tau( 235) = (   0.6875000   0.1804220   0.1497278  )
       236           B   tau( 236) = (   0.6875000   0.2886752   0.1497278  )
       237           B   tau( 237) = (   0.6875000   0.3969284   0.1497278  )
       238           B   tau( 238) = (   0.6875000   0.5051816   0.1497278  )
       239           B   tau( 239) = (   0.6875000   0.6134348   0.1497278  )
       240           B   tau( 240) = (   0.6875000   0.7216880   0.1497278  )
       241           B   tau( 241) = (   0.8125000   0.8299412   0.1497278  )
       242           B   tau( 242) = (   0.8125000   0.0721688   0.1497278  )
       243           B   tau( 243) = (   0.8125000   0.1804220   0.1497278  )
       244           B   tau( 244) = (   0.8125000   0.2886752   0.1497278  )
       245           B   tau( 245) = (   0.8125000   0.3969284   0.1497278  )
       246           B   tau( 246) = (   0.8125000   0.5051816   0.1497278  )
       247           B   tau( 247) = (   0.8125000   0.6134348   0.1497278  )
       248           B   tau( 248) = (   0.8125000   0.7216880   0.1497278  )
       249           B   tau( 249) = (   0.9375000   0.8299412   0.1497278  )
       250           B   tau( 250) = (   0.9375000   0.0721688   0.1497278  )
       251           B   tau( 251) = (   0.9375000   0.1804220   0.1497278  )
       252           B   tau( 252) = (   0.9375000   0.2886752   0.1497278  )
       253           B   tau( 253) = (   0.9375000   0.3969284   0.1497278  )
       254           B   tau( 254) = (   0.9375000   0.5051816   0.1497278  )
       255           B   tau( 255) = (   0.9375000   0.6134348   0.1497278  )
       256           B   tau( 256) = (   0.9375000   0.7216880   0.1497278  )
       257           N   tau( 257) = (   0.9687500   0.8479833   0.1497278  )
       258           N   tau( 258) = (   0.9687500   0.0902110   0.1497278  )
       259           N   tau( 259) = (   0.9687500   0.1984642   0.1497278  )
       260           N   tau( 260) = (   0.9687500   0.3067174   0.1497278  )
       261           N   tau( 261) = (   0.9687500   0.4149705   0.1497278  )
       262           N   tau( 262) = (   0.9687500   0.5232237   0.1497278  )
       263           N   tau( 263) = (   0.9687500   0.6314769   0.1497278  )
       264           N   tau( 264) = (   0.9687500   0.7397301   0.1497278  )
       265           N   tau( 265) = (   0.0937500   0.8479833   0.1497278  )
       266           N   tau( 266) = (   0.0937500   0.0902110   0.1497278  )
       267           N   tau( 267) = (   0.0937500   0.1984642   0.1497278  )
       268           N   tau( 268) = (   0.0937500   0.3067174   0.1497278  )
       269           N   tau( 269) = (   0.0937500   0.4149705   0.1497278  )
       270           N   tau( 270) = (   0.0937500   0.5232237   0.1497278  )
       271           N   tau( 271) = (   0.0937500   0.6314769   0.1497278  )
       272           N   tau( 272) = (   0.0937500   0.7397301   0.1497278  )
       273           N   tau( 273) = (   0.2187500   0.8479833   0.1497278  )
       274           N   tau( 274) = (   0.2187500   0.0902110   0.1497278  )
       275           N   tau( 275) = (   0.2187500   0.1984642   0.1497278  )
       276           N   tau( 276) = (   0.2187500   0.3067174   0.1497278  )
       277           N   tau( 277) = (   0.2187500   0.4149705   0.1497278  )
       278           N   tau( 278) = (   0.2187500   0.5232237   0.1497278  )
       279           N   tau( 279) = (   0.2187500   0.6314769   0.1497278  )
       280           N   tau( 280) = (   0.2187500   0.7397301   0.1497278  )
       281           N   tau( 281) = (   0.3437500   0.8479833   0.1497278  )
       282           N   tau( 282) = (   0.3437500   0.0902110   0.1497278  )
       283           N   tau( 283) = (   0.3437500   0.1984642   0.1497278  )
       284           N   tau( 284) = (   0.3437500   0.3067174   0.1497278  )
       285           N   tau( 285) = (   0.3437500   0.4149705   0.1497278  )
       286           N   tau( 286) = (   0.3437500   0.5232237   0.1497278  )
       287           N   tau( 287) = (   0.3437500   0.6314769   0.1497278  )
       288           N   tau( 288) = (   0.3437500   0.7397301   0.1497278  )
       289           N   tau( 289) = (   0.4687500   0.8479833   0.1497278  )
       290           N   tau( 290) = (   0.4687500   0.0902110   0.1497278  )
       291           N   tau( 291) = (   0.4687500   0.1984642   0.1497278  )
       292           N   tau( 292) = (   0.4687500   0.3067174   0.1497278  )
       293           N   tau( 293) = (   0.4687500   0.4149705   0.1497278  )
       294           N   tau( 294) = (   0.4687500   0.5232237   0.1497278  )
       295           N   tau( 295) = (   0.4687500   0.6314769   0.1497278  )
       296           N   tau( 296) = (   0.4687500   0.7397301   0.1497278  )
       297           N   tau( 297) = (   0.5937500   0.8479833   0.1497278  )
       298           N   tau( 298) = (   0.5937500   0.0902110   0.1497278  )
       299           N   tau( 299) = (   0.5937500   0.1984642   0.1497278  )
       300           N   tau( 300) = (   0.5937500   0.3067174   0.1497278  )
       301           N   tau( 301) = (   0.5937500   0.4149705   0.1497278  )
       302           N   tau( 302) = (   0.5937500   0.5232237   0.1497278  )
       303           N   tau( 303) = (   0.5937500   0.6314769   0.1497278  )
       304           N   tau( 304) = (   0.5937500   0.7397301   0.1497278  )
       305           N   tau( 305) = (   0.7187500   0.8479833   0.1497278  )
       306           N   tau( 306) = (   0.7187500   0.0902110   0.1497278  )
       307           N   tau( 307) = (   0.7187500   0.1984642   0.1497278  )
       308           N   tau( 308) = (   0.7187500   0.3067174   0.1497278  )
       309           N   tau( 309) = (   0.7187500   0.4149705   0.1497278  )
       310           N   tau( 310) = (   0.7187500   0.5232237   0.1497278  )
       311           N   tau( 311) = (   0.7187500   0.6314769   0.1497278  )
       312           N   tau( 312) = (   0.7187500   0.7397301   0.1497278  )
       313           N   tau( 313) = (   0.8437500   0.8479833   0.1497278  )
       314           N   tau( 314) = (   0.8437500   0.0902110   0.1497278  )
       315           N   tau( 315) = (   0.8437500   0.1984642   0.1497278  )
       316           N   tau( 316) = (   0.8437500   0.3067174   0.1497278  )
       317           N   tau( 317) = (   0.8437500   0.4149705   0.1497278  )
       318           N   tau( 318) = (   0.8437500   0.5232237   0.1497278  )
       319           N   tau( 319) = (   0.8437500   0.6314769   0.1497278  )
       320           N   tau( 320) = (   0.8437500   0.7397301   0.1497278  )
       321           N   tau( 321) = (   0.0312500   0.8479833   0.1497278  )
       322           N   tau( 322) = (   0.0312500   0.0902110   0.1497278  )
       323           N   tau( 323) = (   0.0312500   0.1984642   0.1497278  )
       324           N   tau( 324) = (   0.0312500   0.3067174   0.1497278  )
       325           N   tau( 325) = (   0.0312500   0.4149705   0.1497278  )
       326           N   tau( 326) = (   0.0312500   0.5232237   0.1497278  )
       327           N   tau( 327) = (   0.0312500   0.6314769   0.1497278  )
       328           N   tau( 328) = (   0.0312500   0.7397301   0.1497278  )
       329           N   tau( 329) = (   0.1562500   0.8479833   0.1497278  )
       330           N   tau( 330) = (   0.1562500   0.0902110   0.1497278  )
       331           N   tau( 331) = (   0.1562500   0.1984642   0.1497278  )
       332           N   tau( 332) = (   0.1562500   0.3067174   0.1497278  )
       333           N   tau( 333) = (   0.1562500   0.4149705   0.1497278  )
       334           N   tau( 334) = (   0.1562500   0.5232237   0.1497278  )
       335           N   tau( 335) = (   0.1562500   0.6314769   0.1497278  )
       336           N   tau( 336) = (   0.1562500   0.7397301   0.1497278  )
       337           N   tau( 337) = (   0.2812500   0.8479833   0.1497278  )
       338           N   tau( 338) = (   0.2812500   0.0902110   0.1497278  )
       339           N   tau( 339) = (   0.2812500   0.1984642   0.1497278  )
       340           N   tau( 340) = (   0.2812500   0.3067174   0.1497278  )
       341           N   tau( 341) = (   0.2812500   0.4149705   0.1497278  )
       342           N   tau( 342) = (   0.2812500   0.5232237   0.1497278  )
       343           N   tau( 343) = (   0.2812500   0.6314769   0.1497278  )
       344           N   tau( 344) = (   0.2812500   0.7397301   0.1497278  )
       345           N   tau( 345) = (   0.4062500   0.8479833   0.1497278  )
       346           N   tau( 346) = (   0.4062500   0.0902110   0.1497278  )
       347           N   tau( 347) = (   0.4062500   0.1984642   0.1497278  )
       348           N   tau( 348) = (   0.4062500   0.3067174   0.1497278  )
       349           N   tau( 349) = (   0.4062500   0.4149705   0.1497278  )
       350           N   tau( 350) = (   0.4062500   0.5232237   0.1497278  )
       351           N   tau( 351) = (   0.4062500   0.6314769   0.1497278  )
       352           N   tau( 352) = (   0.4062500   0.7397301   0.1497278  )
       353           N   tau( 353) = (   0.5312500   0.8479833   0.1497278  )
       354           N   tau( 354) = (   0.5312500   0.0902110   0.1497278  )
       355           N   tau( 355) = (   0.5312500   0.1984642   0.1497278  )
       356           N   tau( 356) = (   0.5312500   0.3067174   0.1497278  )
       357           N   tau( 357) = (   0.5312500   0.4149705   0.1497278  )
       358           N   tau( 358) = (   0.5312500   0.5232237   0.1497278  )
       359           N   tau( 359) = (   0.5312500   0.6314769   0.1497278  )
       360           N   tau( 360) = (   0.5312500   0.7397301   0.1497278  )
       361           N   tau( 361) = (   0.6562500   0.8479833   0.1497278  )
       362           N   tau( 362) = (   0.6562500   0.0902110   0.1497278  )
       363           N   tau( 363) = (   0.6562500   0.1984642   0.1497278  )
       364           N   tau( 364) = (   0.6562500   0.3067174   0.1497278  )
       365           N   tau( 365) = (   0.6562500   0.4149705   0.1497278  )
       366           N   tau( 366) = (   0.6562500   0.5232237   0.1497278  )
       367           N   tau( 367) = (   0.6562500   0.6314769   0.1497278  )
       368           N   tau( 368) = (   0.6562500   0.7397301   0.1497278  )
       369           N   tau( 369) = (   0.7812500   0.8479833   0.1497278  )
       370           N   tau( 370) = (   0.7812500   0.0902110   0.1497278  )
       371           N   tau( 371) = (   0.7812500   0.1984642   0.1497278  )
       372           N   tau( 372) = (   0.7812500   0.3067174   0.1497278  )
       373           N   tau( 373) = (   0.7812500   0.4149705   0.1497278  )
       374           N   tau( 374) = (   0.7812500   0.5232237   0.1497278  )
       375           N   tau( 375) = (   0.7812500   0.6314769   0.1497278  )
       376           N   tau( 376) = (   0.7812500   0.7397301   0.1497278  )
       377           N   tau( 377) = (   0.9062500   0.8479833   0.1497278  )
       378           N   tau( 378) = (   0.9062500   0.0902110   0.1497278  )
       379           N   tau( 379) = (   0.9062500   0.1984642   0.1497278  )
       380           N   tau( 380) = (   0.9062500   0.3067174   0.1497278  )
       381           N   tau( 381) = (   0.9062500   0.4149705   0.1497278  )
       382           N   tau( 382) = (   0.9062500   0.5232237   0.1497278  )
       383           N   tau( 383) = (   0.9062500   0.6314769   0.1497278  )
       384           N   tau( 384) = (   0.9062500   0.7397301   0.1497278  )
       385           N   tau( 385) = (   0.0000000   0.0360844   0.1497278  )
       386           N   tau( 386) = (   0.0000000   0.1443376   0.1497278  )
       387           N   tau( 387) = (   0.0000000   0.2525908   0.1497278  )
       388           N   tau( 388) = (   0.0000000   0.3608439   0.1497278  )
       389           N   tau( 389) = (   0.0000000   0.4690971   0.1497278  )
       390           N   tau( 390) = (   0.0000000   0.5773503   0.1497278  )
       391           N   tau( 391) = (   0.0000000   0.6856035   0.1497278  )
       392           N   tau( 392) = (   0.0000000   0.7938567   0.1497278  )
       393           N   tau( 393) = (   0.1250000   0.0360844   0.1497278  )
       394           N   tau( 394) = (   0.1250000   0.1443376   0.1497278  )
       395           N   tau( 395) = (   0.1250000   0.2525908   0.1497278  )
       396           N   tau( 396) = (   0.1250000   0.3608439   0.1497278  )
       397           N   tau( 397) = (   0.1250000   0.4690971   0.1497278  )
       398           N   tau( 398) = (   0.1250000   0.5773503   0.1497278  )
       399           N   tau( 399) = (   0.1250000   0.6856035   0.1497278  )
       400           N   tau( 400) = (   0.1250000   0.7938567   0.1497278  )
       401           N   tau( 401) = (   0.2500000   0.0360844   0.1497278  )
       402           N   tau( 402) = (   0.2500000   0.1443376   0.1497278  )
       403           N   tau( 403) = (   0.2500000   0.2525908   0.1497278  )
       404           N   tau( 404) = (   0.2500000   0.3608439   0.1497278  )
       405           N   tau( 405) = (   0.2500000   0.4690971   0.1497278  )
       406           N   tau( 406) = (   0.2500000   0.5773503   0.1497278  )
       407           N   tau( 407) = (   0.2500000   0.6856035   0.1497278  )
       408           N   tau( 408) = (   0.2500000   0.7938567   0.1497278  )
       409           N   tau( 409) = (   0.3750000   0.0360844   0.1497278  )
       410           N   tau( 410) = (   0.3750000   0.1443376   0.1497278  )
       411           N   tau( 411) = (   0.3750000   0.2525908   0.1497278  )
       412           N   tau( 412) = (   0.3750000   0.3608439   0.1497278  )
       413           N   tau( 413) = (   0.3750000   0.4690971   0.1497278  )
       414           N   tau( 414) = (   0.3750000   0.5773503   0.1497278  )
       415           N   tau( 415) = (   0.3750000   0.6856035   0.1497278  )
       416           N   tau( 416) = (   0.3750000   0.7938567   0.1497278  )
       417           N   tau( 417) = (   0.5000000   0.0360844   0.1497278  )
       418           N   tau( 418) = (   0.5000000   0.1443376   0.1497278  )
       419           N   tau( 419) = (   0.5000000   0.2525908   0.1497278  )
       420           N   tau( 420) = (   0.5000000   0.3608439   0.1497278  )
       421           N   tau( 421) = (   0.5000000   0.4690971   0.1497278  )
       422           N   tau( 422) = (   0.5000000   0.5773503   0.1497278  )
       423           N   tau( 423) = (   0.5000000   0.6856035   0.1497278  )
       424           N   tau( 424) = (   0.5000000   0.7938567   0.1497278  )
       425           N   tau( 425) = (   0.6250000   0.0360844   0.1497278  )
       426           N   tau( 426) = (   0.6250000   0.1443376   0.1497278  )
       427           N   tau( 427) = (   0.6250000   0.2525908   0.1497278  )
       428           N   tau( 428) = (   0.6250000   0.3608439   0.1497278  )
       429           N   tau( 429) = (   0.6250000   0.4690971   0.1497278  )
       430           N   tau( 430) = (   0.6250000   0.5773503   0.1497278  )
       431           N   tau( 431) = (   0.6250000   0.6856035   0.1497278  )
       432           N   tau( 432) = (   0.6250000   0.7938567   0.1497278  )
       433           N   tau( 433) = (   0.7500000   0.0360844   0.1497278  )
       434           N   tau( 434) = (   0.7500000   0.1443376   0.1497278  )
       435           N   tau( 435) = (   0.7500000   0.2525908   0.1497278  )
       436           N   tau( 436) = (   0.7500000   0.3608439   0.1497278  )
       437           N   tau( 437) = (   0.7500000   0.4690971   0.1497278  )
       438           N   tau( 438) = (   0.7500000   0.5773503   0.1497278  )
       439           N   tau( 439) = (   0.7500000   0.6856035   0.1497278  )
       440           N   tau( 440) = (   0.7500000   0.7938567   0.1497278  )
       441           N   tau( 441) = (   0.8750000   0.0360844   0.1497278  )
       442           N   tau( 442) = (   0.8750000   0.1443376   0.1497278  )
       443           N   tau( 443) = (   0.8750000   0.2525908   0.1497278  )
       444           N   tau( 444) = (   0.8750000   0.3608439   0.1497278  )
       445           N   tau( 445) = (   0.8750000   0.4690971   0.1497278  )
       446           N   tau( 446) = (   0.8750000   0.5773503   0.1497278  )
       447           N   tau( 447) = (   0.8750000   0.6856035   0.1497278  )
       448           N   tau( 448) = (   0.8750000   0.7938567   0.1497278  )
       449           N   tau( 449) = (   0.0625000   0.0360844   0.1497278  )
       450           N   tau( 450) = (   0.0625000   0.1443376   0.1497278  )
       451           N   tau( 451) = (   0.0625000   0.2525908   0.1497278  )
       452           N   tau( 452) = (   0.0625000   0.3608439   0.1497278  )
       453           N   tau( 453) = (   0.0625000   0.4690971   0.1497278  )
       454           N   tau( 454) = (   0.0625000   0.5773503   0.1497278  )
       455           N   tau( 455) = (   0.0625000   0.6856035   0.1497278  )
       456           N   tau( 456) = (   0.0625000   0.7938567   0.1497278  )
       457           N   tau( 457) = (   0.1875000   0.0360844   0.1497278  )
       458           N   tau( 458) = (   0.1875000   0.1443376   0.1497278  )
       459           N   tau( 459) = (   0.1875000   0.2525908   0.1497278  )
       460           N   tau( 460) = (   0.1875000   0.3608439   0.1497278  )
       461           N   tau( 461) = (   0.1875000   0.4690971   0.1497278  )
       462           N   tau( 462) = (   0.1875000   0.5773503   0.1497278  )
       463           N   tau( 463) = (   0.1875000   0.6856035   0.1497278  )
       464           N   tau( 464) = (   0.1875000   0.7938567   0.1497278  )
       465           N   tau( 465) = (   0.3125000   0.0360844   0.1497278  )
       466           N   tau( 466) = (   0.3125000   0.1443376   0.1497278  )
       467           N   tau( 467) = (   0.3125000   0.2525908   0.1497278  )
       468           N   tau( 468) = (   0.3125000   0.3608439   0.1497278  )
       469           N   tau( 469) = (   0.3125000   0.4690971   0.1497278  )
       470           N   tau( 470) = (   0.3125000   0.5773503   0.1497278  )
       471           N   tau( 471) = (   0.3125000   0.6856035   0.1497278  )
       472           N   tau( 472) = (   0.3125000   0.7938567   0.1497278  )
       473           N   tau( 473) = (   0.4375000   0.0360844   0.1497278  )
       474           N   tau( 474) = (   0.4375000   0.1443376   0.1497278  )
       475           N   tau( 475) = (   0.4375000   0.2525908   0.1497278  )
       476           N   tau( 476) = (   0.4375000   0.3608439   0.1497278  )
       477           N   tau( 477) = (   0.4375000   0.4690971   0.1497278  )
       478           N   tau( 478) = (   0.4375000   0.5773503   0.1497278  )
       479           N   tau( 479) = (   0.4375000   0.6856035   0.1497278  )
       480           N   tau( 480) = (   0.4375000   0.7938567   0.1497278  )
       481           N   tau( 481) = (   0.5625000   0.0360844   0.1497278  )
       482           N   tau( 482) = (   0.5625000   0.1443376   0.1497278  )
       483           N   tau( 483) = (   0.5625000   0.2525908   0.1497278  )
       484           N   tau( 484) = (   0.5625000   0.3608439   0.1497278  )
       485           N   tau( 485) = (   0.5625000   0.4690971   0.1497278  )
       486           N   tau( 486) = (   0.5625000   0.5773503   0.1497278  )
       487           N   tau( 487) = (   0.5625000   0.6856035   0.1497278  )
       488           N   tau( 488) = (   0.5625000   0.7938567   0.1497278  )
       489           N   tau( 489) = (   0.6875000   0.0360844   0.1497278  )
       490           N   tau( 490) = (   0.6875000   0.1443376   0.1497278  )
       491           N   tau( 491) = (   0.6875000   0.2525908   0.1497278  )
       492           N   tau( 492) = (   0.6875000   0.3608439   0.1497278  )
       493           N   tau( 493) = (   0.6875000   0.4690971   0.1497278  )
       494           N   tau( 494) = (   0.6875000   0.5773503   0.1497278  )
       495           N   tau( 495) = (   0.6875000   0.6856035   0.1497278  )
       496           N   tau( 496) = (   0.6875000   0.7938567   0.1497278  )
       497           N   tau( 497) = (   0.8125000   0.0360844   0.1497278  )
       498           N   tau( 498) = (   0.8125000   0.1443376   0.1497278  )
       499           N   tau( 499) = (   0.8125000   0.2525908   0.1497278  )
       500           N   tau( 500) = (   0.8125000   0.3608439   0.1497278  )
       501           N   tau( 501) = (   0.8125000   0.4690971   0.1497278  )
       502           N   tau( 502) = (   0.8125000   0.5773503   0.1497278  )
       503           N   tau( 503) = (   0.8125000   0.6856035   0.1497278  )
       504           N   tau( 504) = (   0.8125000   0.7938567   0.1497278  )
       505           N   tau( 505) = (   0.9375000   0.0360844   0.1497278  )
       506           N   tau( 506) = (   0.9375000   0.1443376   0.1497278  )
       507           N   tau( 507) = (   0.9375000   0.2525908   0.1497278  )
       508           N   tau( 508) = (   0.9375000   0.3608439   0.1497278  )
       509           N   tau( 509) = (   0.9375000   0.4690971   0.1497278  )
       510           N   tau( 510) = (   0.9375000   0.5773503   0.1497278  )
       511           N   tau( 511) = (   0.9375000   0.6856035   0.1497278  )
       512           N   tau( 512) = (   0.9375000   0.7938567   0.1497278  )
       513           O   tau( 513) = (   0.3750000   0.3247596   0.2294429  )
       514           H   tau( 514) = (   0.3750000   0.3436490   0.2148227  )
       515           H   tau( 515) = (   0.3750000   0.3058702   0.2148227  )

     number of k points=     4
                       cart. coord. in units 2pi/alat
        k(    1) = (   0.0000000   0.0000000   0.0000000), wk =   0.2222222
        k(    2) = (   0.0000000   0.3849001   0.0000000), wk =   0.4444444
        k(    3) = (   0.3333333   0.0000000   0.0000000), wk =   0.4444444
        k(    4) = (   0.3333333   0.3849001   0.0000000), wk =   0.8888889

     Dense  grid: 14036177 G-vectors     FFT dimensions: ( 360, 300, 270)

     Estimated max dynamical RAM per process >       3.34 GB

     Estimated total dynamical RAM >     427.44 GB

     Check: negative core charge=   -0.000007

     Initial potential from superposition of free atoms

     starting charge    2055.9258, renormalised to    2056.0000

     negative rho (up, down):  2.271E-01 0.000E+00
     Starting wfcs are 2054 randomized atomic wfcs
     Checking if some PAW data can be deallocated... 

     total cpu time spent up to now is      810.9 secs

     Self-consistent Calculation

     iteration #  1     ecut=    51.45 Ry     beta= 0.70
     Davidson diagonalization with overlap
     ethr =  1.00E-02,  avg # of iterations =  3.0

     negative rho (up, down):  5.919E-01 0.000E+00

     total cpu time spent up to now is     2542.3 secs

     total energy              =  -10210.31211765 Ry
     estimated scf accuracy    <     109.03472028 Ry

     iteration #  2     ecut=    51.45 Ry     beta= 0.70
     Davidson diagonalization with overlap
     ethr =  5.30E-03,  avg # of iterations =  3.5

     negative rho (up, down):  6.461E-01 0.000E+00

     total cpu time spent up to now is     4357.7 secs

     total energy              =  -10242.17827075 Ry
     estimated scf accuracy    <      47.75913989 Ry

     iteration #  3     ecut=    51.45 Ry     beta= 0.70
     Davidson diagonalization with overlap
     ethr =  2.32E-03,  avg # of iterations =  2.0

     negative rho (up, down):  7.800E-01 0.000E+00

     total cpu time spent up to now is     5881.2 secs

     total energy              =  -10248.42918315 Ry
     estimated scf accuracy    <       1.16579093 Ry

     iteration #  4     ecut=    51.45 Ry     beta= 0.70
     Davidson diagonalization with overlap
     c_bands:  4 eigenvalues not converged
     c_bands:  2 eigenvalues not converged
     ethr =  5.67E-05,  avg # of iterations = 19.0

     negative rho (up, down):  7.854E-01 0.000E+00

     total cpu time spent up to now is     8268.2 secs

     total energy              =  -10249.31394526 Ry
     estimated scf accuracy    <       1.45312809 Ry

     iteration #  5     ecut=    51.45 Ry     beta= 0.70
     Davidson diagonalization with overlap
     c_bands:  1 eigenvalues not converged
     c_bands:  3 eigenvalues not converged
     ethr =  5.67E-05,  avg # of iterations = 19.8

     negative rho (up, down):  7.928E-01 0.000E+00

     total cpu time spent up to now is     9709.2 secs

     total energy              =  -10249.26385318 Ry
     estimated scf accuracy    <       0.34188874 Ry

     iteration #  6     ecut=    51.45 Ry     beta= 0.70
     Davidson diagonalization with overlap
     c_bands:  4 eigenvalues not converged
     c_bands:  2 eigenvalues not converged
     ethr =  1.66E-05,  avg # of iterations = 21.5

     negative rho (up, down):  8.095E-01 0.000E+00

     total cpu time spent up to now is    12139.8 secs

     total energy              =  -10249.32825721 Ry
     estimated scf accuracy    <       0.00849641 Ry

     iteration #  7     ecut=    51.45 Ry     beta= 0.70
     Davidson diagonalization with overlap
     c_bands:  2 eigenvalues not converged
     c_bands:  5 eigenvalues not converged
     c_bands:  2 eigenvalues not converged
     c_bands:  4 eigenvalues not converged
     ethr =  4.13E-07,  avg # of iterations = 30.0

     negative rho (up, down):  8.095E-01 0.000E+00

     total cpu time spent up to now is    14788.5 secs

     total energy              =  -10249.32980495 Ry
     estimated scf accuracy    <       0.00116915 Ry

     iteration #  8     ecut=    51.45 Ry     beta= 0.70
     Davidson diagonalization with overlap
     c_bands:  1 eigenvalues not converged
     ethr =  5.69E-08,  avg # of iterations = 16.5

     negative rho (up, down):  8.093E-01 0.000E+00

     total cpu time spent up to now is    16700.3 secs

     total energy              =  -10249.33010709 Ry
     estimated scf accuracy    <       0.00012260 Ry

     iteration #  9     ecut=    51.45 Ry     beta= 0.70
     Davidson diagonalization with overlap
     ethr =  5.96E-09,  avg # of iterations =  5.0

     negative rho (up, down):  8.092E-01 0.000E+00

     total cpu time spent up to now is    18138.7 secs

     total energy              =  -10249.33007767 Ry
     estimated scf accuracy    <       0.00012548 Ry

     iteration # 10     ecut=    51.45 Ry     beta= 0.70
     Davidson diagonalization with overlap
     ethr =  5.96E-09,  avg # of iterations =  3.5

     negative rho (up, down):  8.091E-01 0.000E+00

     total cpu time spent up to now is    19337.2 secs

     total energy              =  -10249.33008030 Ry
     estimated scf accuracy    <       0.00001521 Ry

     iteration # 11     ecut=    51.45 Ry     beta= 0.70
     Davidson diagonalization with overlap
     ethr =  7.40E-10,  avg # of iterations =  5.0

     negative rho (up, down):  8.092E-01 0.000E+00

     total cpu time spent up to now is    21202.7 secs

     End of self-consistent calculation

          k = 0.0000 0.0000 0.0000 (****** PWs)   bands (ev):

   -24.0324 -22.3419 -22.2868 -22.2710 -22.2560 -22.2558 -22.2055 -22.1994
   -22.1963 -22.1949 -22.1092 -22.1057 -22.0442 -22.0388 -22.0322 -22.0296
   -22.0288 -22.0278 -21.9791 -21.9787 -21.9728 -21.9723 -21.8341 -21.8312
   -21.8144 -21.8139 -21.8112 -21.8107 -21.7600 -21.7583 -21.7555 -21.7552
   -21.6718 -21.6713 -21.6170 -21.6166 -21.6099 -21.6098 -21.5448 -21.5436
   -21.5428 -21.5427 -21.4578 -21.4554 -21.4551 -21.4537 -21.4524 -21.4521
   -21.3867 -21.3854 -21.3823 -21.3817 -21.1998 -21.1984 -21.1951 -21.1949
   -21.1809 -21.1806 -21.1773 -21.1768 -21.1765 -21.1765 -21.1290 -21.1286
   -21.1224 -21.1223 -20.9922 -20.9916 -20.9759 -20.9752 -20.9725 -20.9724
   -20.9275 -20.9268 -20.9231 -20.9230 -20.8468 -20.8458 -20.8453 -20.8448
   -20.7359 -20.7347 -20.7346 -20.7341 -20.7283 -20.7280 -20.7268 -20.7268
   -20.5991 -20.5984 -20.5486 -20.5481 -20.5418 -20.5418 -20.4627 -20.4622
   -20.4319 -20.4305 -20.4296 -20.4291 -20.4085 -20.4075 -20.4054 -20.4049
   -20.4047 -20.4043 -20.4012 -20.4011 -20.4002 -20.4000 -20.3995 -20.3994
   -20.2393 -20.2388 -20.2382 -20.2380 -20.1793 -20.1785 -20.1772 -20.1771
   -20.0323 -20.0312 -20.0297 -20.0294 -19.9857 -19.9835 -19.9803 -19.9802
   -19.9785 -19.9784 -19.9382 -19.9369 -19.9316 -19.9307 -19.9029 -19.9024
   -19.8903 -19.8896 -19.8891 -19.8887 -19.8590 -19.8587 -19.8556 -19.8555
   -19.8087 -19.8073 -19.8054 -19.8047 -19.7392 -19.7387 -19.7376 -19.7375
   -19.6587 -19.6578 -19.6538 -19.6538 -19.6104 -19.6084 -19.6076 -19.6071
   -19.5783 -19.5777 -19.5764 -19.5762 -19.5625 -19.5623 -19.5592 -19.5591
   -19.4740 -19.4611 -19.4266 -19.4199 -19.4184 -19.4166 -19.3776 -19.3763
   -19.3702 -19.3685 -19.3670 -19.3666 -19.3653 -19.3645 -19.3561 -19.3561
   -19.3487 -19.3484 -19.3481 -19.3481 -19.3148 -19.3127 -19.3122 -19.3100
   -19.3095 -19.3077 -19.3054 -19.3046 -19.3043 -19.3043 -19.3038 -19.3037
   -19.2667 -19.2665 -19.2611 -19.2611 -19.2478 -19.2415 -19.2414 -19.2085
   -19.2038 -19.1764 -19.1762 -19.1744 -19.1743 -19.1459 -19.1433 -19.1384
   -19.1379 -19.1336 -19.1335 -19.1331 -19.1330 -19.1007 -19.0992 -19.0441
   -19.0438 -19.0424 -19.0422 -18.9967 -18.9963 -18.9950 -18.9949 -18.9714
   -18.9707 -18.9627 -18.9627 -18.9556 -18.9539 -18.9458 -18.9452 -18.9411
   -18.9408 -18.9393 -18.9392 -18.8097 -18.8087 -18.7994 -18.7993 -18.7805
   -18.7801 -18.7779 -18.7776 -18.7771 -18.7771 -18.7050 -18.7049 -18.6695
   -18.6694 -13.5584 -13.5553 -13.5551 -13.5098 -13.5024 -13.4427 -13.4427
   -13.4310 -13.4309 -13.4146 -13.4145 -13.4140 -13.4140 -13.3749 -13.3706
   -13.3476 -13.3475 -13.3408 -13.3407 -13.2543 -13.2541 -13.2530 -13.2528
   -13.2198 -13.2098 -13.1747 -13.1682 -13.1665 -13.1645 -13.1519 -13.1516
   -13.0850 -13.0848 -13.0824 -13.0822 -13.0567 -13.0564 -13.0557 -13.0534
   -13.0534 -13.0522 -13.0511 -13.0502 -13.0502 -13.0498 -13.0494 -13.0492
   -13.0193 -13.0192 -13.0171 -13.0171 -12.8889 -12.8880 -12.8832 -12.8815
   -12.8774 -12.8767 -12.8729 -12.8725 -12.8622 -12.8620 -12.8601 -12.8601
   -12.8591 -12.8589 -12.7846 -12.7845 -12.7820 -12.7819 -12.6994 -12.6974
   -12.6922 -12.6917 -12.6745 -12.6744 -12.6727 -12.6726 -12.6511 -12.6511
   -12.6505 -12.6505 -12.6331 -12.6330 -12.6045 -12.6044 -12.5977 -12.5976
   -12.5619 -12.5617 -12.5586 -12.5585 -12.5135 -12.5130 -12.5126 -12.5121
   -12.4172 -12.4171 -12.4162 -12.4161 -12.3272 -12.3256 -12.3191 -12.3191
   -12.3175 -12.3175 -12.2927 -12.2925 -12.2891 -12.2883 -12.2662 -12.2656
   -12.2655 -12.2649 -12.2646 -12.2645 -12.2262 -12.2259 -12.2243 -12.2236
   -12.1661 -12.1658 -12.1656 -12.1649 -11.9943 -11.9942 -11.9930 -11.9929
   -11.9504 -11.9502 -11.9459 -11.9459 -11.8232 -11.7795 -11.7772 -11.7286
   -11.7285 -11.7276 -11.7274 -11.7253 -11.7251 -11.7246 -11.7245 -11.6750
   -11.6748 -11.6390 -11.6388 -11.4283 -11.4281 -11.4274 -11.4274 -11.4143
   -11.4142 -11.4111 -11.4111 -11.2695 -11.2689 -11.2677 -11.2675 -11.2274
   -11.2272 -11.2235 -11.2232 -11.2205 -11.2203 -11.1697 -11.1696 -11.1359
   -11.1349 -11.1245 -11.1237 -11.1236 -11.1226 -11.1205 -11.1201 -11.1195
   -11.1188 -11.1186 -11.1185 -11.1100 -11.1099 -11.0988 -11.0988 -11.0960
   -11.0960 -11.0544 -11.0533 -11.0498 -11.0494 -10.8084 -10.8082 -10.7790
   -10.7785 -10.7782 -10.7779 -10.7646 -10.7643 -10.7607 -10.7607 -10.6347
   -10.6346 -10.6342 -10.6339 -10.5389 -10.5387 -10.5386 -10.5378 -10.5371
   -10.5370 -10.4531 -10.4529 -10.4525 -10.4524 -10.4222 -10.4207 -10.3945
   -10.3945 -10.3940 -10.3938 -10.3616 -10.3612 -10.3609 -10.3607 -10.3180
   -10.3162 -10.3128 -10.3125 -10.1844 -10.1841 -10.1805 -10.1804 -10.1580
   -10.1577 -10.1536 -10.1536 -10.0036 -10.0035 -10.0026 -10.0025  -9.9944
    -9.9933  -9.9930  -9.9927  -9.9341  -9.9335  -9.9301  -9.9301  -9.9202
    -9.8500  -9.8437  -9.8433  -9.8341  -9.8339  -9.8272  -9.8084  -9.8051
    -9.7929  -9.7923  -9.7800  -9.7800  -9.7546  -9.7539  -9.7534  -9.7533
    -9.7514  -9.7505  -9.7505  -9.7496  -9.7489  -9.7486  -9.7417  -9.7301
    -9.7266  -9.7253  -9.7201  -9.7200  -9.7194  -9.7193  -9.6260  -9.6218
    -9.6111  -9.6034  -9.5449  -9.5445  -9.5414  -9.5414  -9.5395  -9.5353
    -9.5343  -9.5341  -9.5336  -9.5334  -9.5333  -9.5324  -9.5296  -9.5293
    -9.5288  -9.5286  -9.5257  -9.5176  -9.5174  -9.5173  -9.5173  -9.5101
    -9.5043  -9.5016  -9.5010  -9.5000  -9.4436  -9.4432  -9.4428  -9.4427
    -9.4361  -9.4324  -9.4254  -9.4253  -9.2836  -9.2834  -9.2794  -9.2792
    -9.2786  -9.2774  -9.2751  -9.2750  -9.2413  -9.2321  -9.2130  -9.2091
    -9.2057  -9.2056  -9.1402  -9.1343  -9.1312  -9.1308  -9.1227  -9.1218
    -9.1183  -9.1181  -9.0870  -9.0867  -9.0355  -9.0351  -9.0328  -9.0328
    -9.0320  -9.0197  -9.0179  -9.0144  -9.0058  -9.0057  -9.0002  -9.0002
    -8.9503  -8.9464  -8.9428  -8.9422  -8.9382  -8.9370  -8.9341  -8.9341
    -8.8820  -8.8812  -8.8762  -8.8756  -8.8553  -8.8548  -8.8545  -8.8542
    -8.8524  -8.8522  -8.8508  -8.8508  -8.8499  -8.8484  -8.8483  -8.8480
    -8.8479  -8.8429  -8.8429  -8.8426  -8.8418  -8.8411  -8.8382  -8.8382
    -8.8159  -8.8156  -8.8142  -8.8140  -8.8137  -8.8121  -8.8119  -8.8115
    -8.8051  -8.8051  -8.7983  -8.7919  -8.7919  -8.7423  -8.7419  -8.7414
    -8.7413  -8.7334  -8.7302  -8.7301  -8.7282  -8.7282  -8.7231  -8.7225
    -8.7220  -8.7205  -8.7192  -8.7188  -8.7180  -8.7025  -8.7024  -8.6970
    -8.6968  -8.6901  -8.6900  -8.6900  -8.6898  -8.6337  -8.6277  -8.6238
    -8.6234  -8.5266  -8.5263  -8.5257  -8.5256  -8.4833  -8.4825  -8.4808
    -8.4804  -8.4802  -8.4799  -8.4791  -8.4789  -8.4724  -8.4723  -8.3923
    -8.3916  -8.3888  -8.3709  -8.3668  -8.3663  -8.3498  -8.3466  -8.3438
    -8.3434  -8.3427  -8.3425  -8.3292  -8.3288  -8.3214  -8.3209  -8.3114
    -8.3114  -8.2809  -8.2793  -8.2789  -8.2777  -8.2777  -8.2770  -8.2691
    -8.2691  -8.2651  -8.2649  -8.2643  -8.2641  -8.1734  -8.1728  -8.1696
    -8.1696  -8.1059  -8.1025  -8.1023  -8.0961  -8.0938  -8.0914  -8.0914
    -8.0882  -8.0772  -8.0766  -8.0764  -8.0759  -8.0736  -8.0669  -8.0626
    -8.0625  -8.0428  -8.0425  -8.0424  -8.0424  -8.0134  -7.9996  -7.9948
    -7.9946  -7.9171  -7.8876  -7.8865  -7.8857  -7.8818  -7.8817  -7.8816
    -7.8813  -7.8756  -7.8754  -7.8750  -7.8746  -7.8304  -7.8166  -7.8162
    -7.8076  -7.8075  -7.7920  -7.7904  -7.7336  -7.7335  -7.7318  -7.7273
    -7.7255  -7.7236  -7.7236  -7.6991  -7.6171  -7.6161  -7.6156  -7.6151
    -7.6136  -7.6132  -7.6013  -7.6005  -7.5998  -7.5996  -7.5995  -7.5995
    -7.5413  -7.5356  -7.5308  -7.5296  -7.5279  -7.5275  -7.4744  -7.4694
    -7.4660  -7.4660  -7.3549  -7.3516  -7.3418  -7.3407  -7.3344  -7.3333
    -7.3082  -7.3077  -7.3054  -7.3016  -7.2788  -7.2759  -7.2751  -7.2736
    -7.2730  -7.2700  -7.2698  -7.2689  -7.2689  -7.2683  -7.2683  -7.2682
    -7.2530  -7.2526  -7.2521  -7.2520  -7.2424  -7.2421  -7.2345  -7.2345
    -7.1850  -7.1837  -7.1828  -7.1805  -7.1799  -7.1782  -7.0645  -7.0643
    -7.0392  -7.0379  -7.0369  -7.0361  -6.9789  -6.9754  -6.9711  -6.9708
    -6.9576  -6.9549  -6.9547  -6.9545  -6.9499  -6.9494  -6.9489  -6.9484
    -6.9482  -6.9480  -6.8854  -6.8824  -6.7434  -6.7430  -6.7403  -6.7394
    -6.6814  -6.6797  -6.6738  -6.6734  -6.6715  -6.6680  -6.6678  -6.6664
    -6.6648  -6.6643  -6.6079  -6.6052  -6.5989  -6.5988  -6.5625  -6.5609
    -6.5499  -6.5450  -6.5440  -6.5437  -6.5430  -6.5428  -6.5394  -6.5381
    -6.5372  -6.5348  -6.5327  -6.5315  -6.5310  -6.5301  -6.4998  -6.4980
    -6.4942  -6.4940  -6.4384  -6.4357  -6.4233  -6.4207  -6.4184  -6.4183
    -6.3208  -6.3182  -6.3169  -6.3166  -6.3163  -6.3108  -6.2610  -6.2520
    -6.2509  -6.2505  -6.2323  -6.2275  -6.1975  -6.1960  -6.1909  -6.1905
    -6.1407  -6.1372  -6.1362  -6.1331  -6.1329  -6.1321  -6.1094  -6.1009
    -6.0881  -6.0866  -6.0843  -6.0842  -6.0550  -6.0520  -6.0481  -6.0480
    -5.9894  -5.9890  -5.9081  -5.8969  -5.8755  -5.8477  -5.8392  -5.8362
    -5.8348  -5.7829  -5.7772  -5.7761  -5.7755  -5.7751  -5.7697  -5.7525
    -5.7469  -5.7459  -5.7441  -5.7437  -5.7394  -5.7390  -5.7351  -5.6823
    -5.6772  -5.6749  -5.6748  -5.6729  -5.6716  -5.6711  -5.6698  -5.6698
    -5.6694  -5.6693  -5.6683  -5.5990  -5.5958  -5.5928  -5.5925  -5.5643
    -5.5594  -5.5587  -5.5091  -5.5023  -5.4629  -5.4609  -5.4595  -5.4594
    -5.4283  -5.4240  -5.4212  -5.4202  -5.4163  -5.4159  -5.4148  -5.4146
    -5.3485  -5.3459  -5.2609  -5.2593  -5.2590  -5.2584  -5.1935  -5.1923
    -5.1915  -5.1911  -5.1545  -5.1526  -5.1459  -5.1458  -5.1306  -5.1279
    -5.1220  -5.1215  -5.1140  -5.1138  -5.1082  -5.1076  -4.8922  -4.8902
    -4.8826  -4.8824  -4.8516  -4.8507  -4.8460  -4.8458  -4.8458  -4.8456
    -4.7253  -4.7248  -4.6676  -4.6672  -0.1695  -0.0872  -0.0545  -0.0344
    -0.0254   0.0294   0.0445   0.0509   0.0692   0.0901   0.0938   0.1178
     0.1286   0.1359   0.1383   0.1389   0.1404   0.1467   0.1525   0.1539
     0.1737

          k = 0.0000 0.3849 0.0000 (****** PWs)   bands (ev):

   -24.0324 -22.3364 -22.3006 -22.2713 -22.2629 -22.2423 -22.2369 -22.2005
   -22.1457 -22.1377 -22.1273 -22.1009 -22.0979 -22.0767 -22.0722 -22.0651
   -22.0620 -21.9777 -21.9736 -21.9288 -21.9041 -21.9003 -21.8735 -21.8667
   -21.8254 -21.8234 -21.8079 -21.7967 -21.7963 -21.7523 -21.7456 -21.7132
   -21.7088 -21.6987 -21.6985 -21.6318 -21.6300 -21.5889 -21.5861 -21.5216
   -21.4678 -21.4603 -21.4504 -21.4486 -21.4403 -21.4398 -21.4221 -21.4212
   -21.3585 -21.3311 -21.3299 -21.3262 -21.3244 -21.3077 -21.3047 -21.3030
   -21.2971 -21.2619 -21.2610 -21.1476 -21.1444 -21.0830 -21.0813 -21.0508
   -21.0491 -20.9957 -20.9862 -20.9854 -20.9711 -20.9697 -20.9594 -20.9592
   -20.9435 -20.9370 -20.8956 -20.8938 -20.8754 -20.8750 -20.8117 -20.8112
   -20.8006 -20.7933 -20.7901 -20.7493 -20.7428 -20.7100 -20.7087 -20.6443
   -20.6439 -20.6029 -20.5995 -20.5632 -20.5620 -20.5525 -20.5508 -20.5409
   -20.5407 -20.4573 -20.4568 -20.4333 -20.4332 -20.3929 -20.3685 -20.3668
   -20.3603 -20.3600 -20.3436 -20.3371 -20.3058 -20.3052 -20.3044 -20.3042
   -20.2388 -20.2374 -20.2041 -20.2013 -20.1868 -20.1717 -20.1713 -20.1616
   -20.1614 -20.1383 -20.1320 -20.0755 -20.0751 -20.0660 -20.0649 -20.0038
   -20.0009 -19.9867 -19.9849 -19.8998 -19.8992 -19.8866 -19.8857 -19.8788
   -19.8787 -19.8736 -19.8736 -19.8256 -19.8254 -19.7960 -19.7936 -19.7920
   -19.7861 -19.7858 -19.7690 -19.7687 -19.7467 -19.7403 -19.7301 -19.7298
   -19.7123 -19.7113 -19.6842 -19.6840 -19.6253 -19.6247 -19.6230 -19.6192
   -19.6162 -19.5726 -19.5664 -19.5409 -19.5404 -19.5368 -19.5358 -19.4952
   -19.4949 -19.4541 -19.4505 -19.4358 -19.4338 -19.4318 -19.4311 -19.4232
   -19.4232 -19.4193 -19.4193 -19.3732 -19.3722 -19.3557 -19.3555 -19.3516
   -19.3375 -19.3373 -19.3240 -19.3236 -19.3099 -19.3025 -19.3011 -19.3005
   -19.2914 -19.2912 -19.2803 -19.2782 -19.2757 -19.2755 -19.2732 -19.2707
   -19.2690 -19.2561 -19.2560 -19.2425 -19.2425 -19.2338 -19.2297 -19.2297
   -19.2291 -19.2113 -19.2098 -19.1962 -19.1960 -19.1957 -19.1944 -19.1265
   -19.1245 -19.1237 -19.1235 -19.0972 -19.0967 -19.0755 -19.0755 -19.0676
   -19.0666 -19.0359 -19.0346 -19.0146 -19.0142 -19.0037 -19.0037 -18.9863
   -18.9860 -18.9688 -18.9679 -18.9554 -18.9552 -18.9409 -18.9409 -18.9100
   -18.9098 -18.8945 -18.8942 -18.8585 -18.8575 -18.8378 -18.8376 -18.8008
   -18.7999 -18.7453 -18.7449 -18.7253 -18.7252 -18.7125 -18.7124 -18.6836
   -18.6835 -13.5415 -13.5414 -13.5200 -13.4942 -13.4941 -13.4717 -13.4636
   -13.4306 -13.4306 -13.4080 -13.4080 -13.3999 -13.3934 -13.3934 -13.3566
   -13.3496 -13.3397 -13.3397 -13.3347 -13.3331 -13.3198 -13.3197 -13.2605
   -13.2605 -13.2280 -13.2251 -13.1974 -13.1974 -13.1515 -13.1514 -13.1445
   -13.1444 -13.1219 -13.1200 -13.1008 -13.1008 -13.0908 -13.0908 -13.0328
   -13.0325 -13.0263 -13.0248 -13.0165 -13.0164 -12.9878 -12.9878 -12.9666
   -12.9581 -12.9580 -12.9263 -12.9210 -12.8986 -12.8986 -12.8940 -12.8939
   -12.8653 -12.8653 -12.8469 -12.8450 -12.8223 -12.8200 -12.7860 -12.7848
   -12.7657 -12.7656 -12.7425 -12.7425 -12.7276 -12.7275 -12.6965 -12.6962
   -12.6939 -12.6935 -12.6848 -12.6844 -12.6749 -12.6740 -12.6701 -12.6701
   -12.6670 -12.6472 -12.6472 -12.6449 -12.6449 -12.6424 -12.6423 -12.6303
   -12.6257 -12.6127 -12.6126 -12.5966 -12.5966 -12.5662 -12.5654 -12.5443
   -12.5418 -12.5180 -12.5180 -12.4911 -12.4911 -12.4401 -12.4387 -12.4197
   -12.4194 -12.4127 -12.4125 -12.3223 -12.3222 -12.3046 -12.3044 -12.2943
   -12.2943 -12.1529 -12.1528 -12.1311 -12.1310 -12.1301 -12.1300 -12.0951
   -12.0942 -11.9516 -11.9320 -11.9319 -11.9204 -11.9180 -11.9154 -11.9147
   -11.8853 -11.8831 -11.8689 -11.8687 -11.8246 -11.8184 -11.8155 -11.7909
   -11.7898 -11.7324 -11.7313 -11.6795 -11.6793 -11.6292 -11.6291 -11.6132
   -11.6131 -11.6007 -11.6006 -11.5792 -11.5757 -11.5460 -11.5331 -11.5329
   -11.5208 -11.5198 -11.5162 -11.5161 -11.5030 -11.5028 -11.4476 -11.4475
   -11.3308 -11.3307 -11.3117 -11.3115 -11.2170 -11.2169 -11.2068 -11.2057
   -11.1800 -11.1799 -11.1472 -11.1464 -11.1161 -11.1160 -10.9994 -10.9993
   -10.9698 -10.9696 -10.9641 -10.9639 -10.9615 -10.9606 -10.9600 -10.9600
   -10.9185 -10.9182 -10.9173 -10.9170 -10.9040 -10.9040 -10.8483 -10.8482
   -10.7463 -10.7457 -10.7307 -10.7247 -10.6843 -10.6841 -10.6823 -10.6822
   -10.6817 -10.6673 -10.6577 -10.6568 -10.6561 -10.5596 -10.5594 -10.5229
   -10.5227 -10.4908 -10.4906 -10.4116 -10.4098 -10.3733 -10.3724 -10.3637
   -10.3635 -10.3487 -10.3486 -10.3372 -10.3370 -10.3303 -10.3259 -10.2972
   -10.2969 -10.2644 -10.2643 -10.2391 -10.2327 -10.2316 -10.2257 -10.2202
   -10.2200 -10.2070 -10.1264 -10.1253 -10.1015 -10.1014 -10.0728 -10.0725
   -10.0400 -10.0398 -10.0218 -10.0217  -9.9949  -9.9947  -9.9861  -9.9859
    -9.9725  -9.9724  -9.9124  -9.8834  -9.8832  -9.8675  -9.8362  -9.8352
    -9.8292  -9.8161  -9.8132  -9.8130  -9.7946  -9.7944  -9.7916  -9.7914
    -9.7898  -9.7818  -9.7527  -9.7525  -9.7463  -9.7462  -9.7316  -9.6853
    -9.6852  -9.6605  -9.6527  -9.6517  -9.6478  -9.6325  -9.6174  -9.6126
    -9.5992  -9.5926  -9.5836  -9.5815  -9.5664  -9.5587  -9.5507  -9.5466
    -9.5459  -9.5428  -9.5275  -9.5271  -9.5034  -9.5032  -9.4698  -9.4667
    -9.4532  -9.4527  -9.4331  -9.4255  -9.4201  -9.4200  -9.3833  -9.3802
    -9.3650  -9.3646  -9.3645  -9.3470  -9.3355  -9.3336  -9.3321  -9.3321
    -9.3264  -9.3136  -9.3131  -9.2921  -9.2909  -9.2822  -9.2764  -9.2763
    -9.2506  -9.2503  -9.2278  -9.2214  -9.2112  -9.2104  -9.2010  -9.1928
    -9.1926  -9.1880  -9.1865  -9.1717  -9.1687  -9.1562  -9.1562  -9.1544
    -9.1514  -9.1507  -9.1507  -9.1314  -9.1314  -9.1277  -9.1182  -9.0878
    -9.0877  -9.0753  -9.0659  -9.0553  -9.0550  -9.0548  -9.0547  -9.0427
    -9.0426  -9.0258  -9.0134  -9.0111  -9.0103  -8.9915  -8.9914  -8.9889
    -8.9826  -8.9685  -8.9683  -8.9651  -8.9610  -8.9603  -8.9599  -8.9573
    -8.9573  -8.9303  -8.9301  -8.9082  -8.9065  -8.9012  -8.9001  -8.9001
    -8.8976  -8.8882  -8.8882  -8.8840  -8.8746  -8.8518  -8.8511  -8.8363
    -8.8229  -8.8228  -8.8128  -8.8050  -8.7941  -8.7939  -8.7938  -8.7886
    -8.7598  -8.7439  -8.7372  -8.7371  -8.7306  -8.7290  -8.7288  -8.7192
    -8.7125  -8.7096  -8.7095  -8.7032  -8.7019  -8.6800  -8.6799  -8.6782
    -8.6775  -8.6768  -8.6752  -8.6553  -8.6314  -8.6311  -8.6150  -8.6149
    -8.5914  -8.5912  -8.5833  -8.5763  -8.5690  -8.5685  -8.5583  -8.5566
    -8.5565  -8.5522  -8.5480  -8.5439  -8.5236  -8.5180  -8.5165  -8.5083
    -8.5065  -8.5061  -8.4886  -8.4844  -8.4767  -8.4753  -8.4686  -8.4684
    -8.4611  -8.4611  -8.4580  -8.4541  -8.4518  -8.4517  -8.4276  -8.4274
    -8.4157  -8.4157  -8.3689  -8.3088  -8.3080  -8.3066  -8.3061  -8.3059
    -8.2987  -8.2872  -8.2866  -8.2455  -8.2453  -8.2425  -8.2213  -8.2109
    -8.1748  -8.1681  -8.1641  -8.1639  -8.1632  -8.1546  -8.1459  -8.1456
    -8.1432  -8.1431  -8.1054  -8.1037  -8.1036  -8.0869  -8.0791  -8.0755
    -8.0705  -8.0704  -8.0657  -8.0641  -8.0612  -8.0591  -8.0578  -8.0557
    -8.0556  -8.0469  -8.0454  -8.0257  -8.0143  -7.9951  -7.9861  -7.9679
    -7.9628  -7.9543  -7.9496  -7.9379  -7.9366  -7.9344  -7.9279  -7.8799
    -7.8793  -7.8752  -7.8395  -7.8342  -7.8322  -7.8314  -7.8295  -7.8282
    -7.8192  -7.8111  -7.7862  -7.7858  -7.7457  -7.7444  -7.7255  -7.7244
    -7.6975  -7.6927  -7.6887  -7.6839  -7.6412  -7.6408  -7.6296  -7.6210
    -7.6131  -7.6130  -7.6069  -7.6029  -7.5903  -7.5889  -7.5599  -7.5588
    -7.5571  -7.5469  -7.5464  -7.5446  -7.5441  -7.5219  -7.5213  -7.4932
    -7.4917  -7.4792  -7.4781  -7.4635  -7.4610  -7.4389  -7.4339  -7.4305
    -7.4266  -7.4265  -7.3810  -7.3799  -7.3708  -7.3702  -7.3466  -7.3430
    -7.3159  -7.3147  -7.2510  -7.2498  -7.2231  -7.2219  -7.2112  -7.2094
    -7.1855  -7.1785  -7.1509  -7.1506  -7.1331  -7.1324  -7.1305  -7.1290
    -7.1176  -7.1166  -7.0505  -7.0411  -7.0398  -7.0394  -7.0315  -7.0291
    -7.0242  -7.0231  -7.0212  -7.0189  -6.9908  -6.9876  -6.9592  -6.9574
    -6.9553  -6.9449  -6.9449  -6.9425  -6.9419  -6.9280  -6.9270  -6.9222
    -6.9195  -6.8949  -6.8875  -6.8809  -6.8600  -6.8524  -6.8433  -6.8044
    -6.8035  -6.7956  -6.7949  -6.7758  -6.7754  -6.7580  -6.7540  -6.7052
    -6.7031  -6.7017  -6.6827  -6.6809  -6.6376  -6.6363  -6.5573  -6.5549
    -6.5510  -6.5328  -6.5324  -6.5294  -6.5292  -6.5161  -6.5153  -6.5151
    -6.5103  -6.4771  -6.4740  -6.4494  -6.4486  -6.4456  -6.4437  -6.4073
    -6.4051  -6.3901  -6.3900  -6.3880  -6.3864  -6.3738  -6.3720  -6.3686
    -6.3663  -6.3597  -6.3592  -6.3282  -6.3202  -6.3095  -6.3095  -6.2870
    -6.2864  -6.2734  -6.2659  -6.2475  -6.2374  -6.2362  -6.1732  -6.1672
    -6.1499  -6.1483  -6.1462  -6.1450  -6.1353  -6.1289  -6.1208  -6.1171
    -6.0696  -6.0616  -6.0577  -6.0303  -6.0297  -6.0254  -6.0234  -6.0216
    -6.0061  -5.9545  -5.9496  -5.8966  -5.8950  -5.8879  -5.8740  -5.8681
    -5.8588  -5.8560  -5.8524  -5.8409  -5.8409  -5.8300  -5.7786  -5.7665
    -5.7599  -5.7573  -5.7260  -5.7230  -5.7220  -5.7010  -5.6975  -5.6671
    -5.6575  -5.6516  -5.6444  -5.6428  -5.6425  -5.6373  -5.6353  -5.6281
    -5.6268  -5.6180  -5.6165  -5.6033  -5.5805  -5.5783  -5.5623  -5.5618
    -5.5497  -5.5457  -5.5453  -5.5424  -5.5361  -5.5346  -5.5039  -5.5029
    -5.4994  -5.4972  -5.3887  -5.3853  -5.3827  -5.3820  -5.3459  -5.3444
    -5.3155  -5.3142  -5.3121  -5.3119  -5.2557  -5.2534  -5.2216  -5.2201
    -5.2099  -5.2096  -5.1771  -5.1761  -5.1485  -5.1467  -5.1332  -5.1323
    -5.1166  -5.1164  -5.0575  -5.0570  -5.0376  -5.0368  -4.9775  -4.9762
    -4.9421  -4.9417  -4.8824  -4.8813  -4.7866  -4.7855  -4.7636  -4.7634
    -4.7385  -4.7382  -4.6921  -4.6917  -0.1582  -0.1080  -0.0622  -0.0404
    -0.0118   0.0025   0.0458   0.0607   0.0685   0.0951   0.0978   0.1122
     0.1137   0.1313   0.1342   0.1439   0.1602   0.1617   0.1651   0.1702
     0.1746

          k = 0.3333 0.0000 0.0000 (****** PWs)   bands (ev):

   -24.0324 -22.3388 -22.3045 -22.2614 -22.2507 -22.2302 -22.2278 -22.2269
   -22.1752 -22.1577 -22.1539 -22.1026 -22.0983 -22.0341 -22.0310 -22.0250
   -22.0048 -22.0044 -21.9557 -21.9511 -21.9355 -21.9327 -21.9319 -21.8808
   -21.8798 -21.8607 -21.8576 -21.7360 -21.7344 -21.7161 -21.6684 -21.6678
   -21.6463 -21.6451 -21.6447 -21.6414 -21.6393 -21.6393 -21.5911 -21.5720
   -21.5718 -21.5221 -21.5194 -21.5174 -21.5160 -21.4326 -21.4319 -21.3779
   -21.3777 -21.3121 -21.3111 -21.3096 -21.2901 -21.2899 -21.2418 -21.2377
   -21.1789 -21.1782 -21.1550 -21.1521 -21.1520 -21.0911 -21.0905 -21.0883
   -21.0844 -21.0832 -21.0832 -21.0380 -21.0375 -21.0357 -21.0355 -20.9708
   -20.9706 -20.9020 -20.9017 -20.8899 -20.8893 -20.8214 -20.8197 -20.8194
   -20.7588 -20.7547 -20.7131 -20.7128 -20.6444 -20.6281 -20.6276 -20.5958
   -20.5950 -20.5850 -20.5809 -20.5737 -20.5732 -20.5728 -20.5725 -20.5694
   -20.5693 -20.5191 -20.5188 -20.5082 -20.5080 -20.4608 -20.4605 -20.4074
   -20.4069 -20.3374 -20.3371 -20.2878 -20.2871 -20.2772 -20.2757 -20.2749
   -20.2617 -20.2614 -20.2232 -20.2195 -20.1589 -20.1585 -20.1290 -20.1287
   -20.0896 -20.0874 -20.0873 -20.0694 -20.0689 -20.0405 -20.0369 -19.9922
   -19.9912 -19.9816 -19.9798 -19.9565 -19.9557 -19.9044 -19.9033 -19.9009
   -19.9006 -19.9003 -19.8999 -19.8584 -19.8576 -19.8330 -19.8327 -19.7859
   -19.7855 -19.7765 -19.7762 -19.7473 -19.7464 -19.7189 -19.6929 -19.6925
   -19.6849 -19.6834 -19.6806 -19.6782 -19.6769 -19.6766 -19.5829 -19.5824
   -19.5455 -19.5443 -19.5406 -19.5310 -19.5299 -19.5102 -19.5080 -19.4790
   -19.4783 -19.4727 -19.4582 -19.4518 -19.4509 -19.4472 -19.4468 -19.4404
   -19.4403 -19.4399 -19.4384 -19.4368 -19.4365 -19.3933 -19.3883 -19.3873
   -19.3871 -19.3555 -19.3503 -19.3443 -19.3441 -19.2998 -19.2994 -19.2871
   -19.2855 -19.2609 -19.2579 -19.2576 -19.2533 -19.2443 -19.2433 -19.2431
   -19.2277 -19.2241 -19.2178 -19.2109 -19.2075 -19.2065 -19.2015 -19.1992
   -19.1988 -19.1959 -19.1936 -19.1935 -19.1909 -19.1906 -19.1785 -19.1780
   -19.1777 -19.1424 -19.1115 -19.1078 -19.0857 -19.0767 -19.0763 -19.0711
   -19.0710 -19.0697 -19.0609 -19.0515 -19.0317 -19.0288 -19.0148 -19.0076
   -18.9990 -18.9987 -18.9980 -18.9861 -18.9857 -18.8997 -18.8879 -18.8863
   -18.8839 -18.8777 -18.8477 -18.8374 -18.8364 -18.8298 -18.8236 -18.8166
   -18.7768 -18.7715 -18.7680 -18.7646 -18.7578 -18.7333 -18.6977 -18.6701
   -18.6611 -13.5557 -13.5336 -13.5335 -13.5283 -13.4777 -13.4776 -13.4717
   -13.4681 -13.4680 -13.4544 -13.4543 -13.4270 -13.3435 -13.3432 -13.3264
   -13.3262 -13.3090 -13.2386 -13.2372 -13.2354 -13.2328 -13.2317 -13.2152
   -13.2140 -13.2137 -13.2068 -13.1942 -13.1940 -13.1886 -13.1886 -13.1879
   -13.1868 -13.1741 -13.1736 -13.1597 -13.1591 -13.1399 -13.1360 -13.1010
   -13.0972 -13.0633 -13.0027 -13.0026 -13.0003 -12.9967 -12.9691 -12.9577
   -12.9559 -12.9390 -12.9368 -12.9129 -12.9115 -12.9087 -12.9066 -12.9020
   -12.9000 -12.8609 -12.8608 -12.8175 -12.8153 -12.8127 -12.8113 -12.8083
   -12.8070 -12.8059 -12.8050 -12.8047 -12.8023 -12.7635 -12.7480 -12.7432
   -12.7352 -12.7329 -12.7277 -12.7261 -12.7035 -12.6995 -12.6720 -12.6560
   -12.6522 -12.6508 -12.6482 -12.6459 -12.6458 -12.6450 -12.6439 -12.5921
   -12.5783 -12.5781 -12.5737 -12.5386 -12.5386 -12.5281 -12.4998 -12.4993
   -12.4138 -12.3872 -12.3832 -12.3669 -12.3666 -12.3261 -12.3244 -12.3020
   -12.3013 -12.2746 -12.2743 -12.2731 -12.2726 -12.2722 -12.2721 -12.2506
   -12.2504 -12.2044 -12.2040 -12.2018 -12.2014 -12.1823 -12.1791 -12.1789
   -12.1777 -12.1760 -12.1755 -12.1692 -12.1687 -12.0840 -12.0374 -12.0373
   -12.0102 -12.0094 -11.9464 -11.9462 -11.8746 -11.8311 -11.8171 -11.7827
   -11.7393 -11.7390 -11.7042 -11.7039 -11.6942 -11.6902 -11.6461 -11.5360
   -11.5359 -11.5291 -11.4551 -11.4239 -11.4230 -11.4182 -11.4141 -11.4115
   -11.4114 -11.3997 -11.3976 -11.3808 -11.3806 -11.3805 -11.3659 -11.3592
   -11.3546 -11.3281 -11.3273 -11.2356 -11.2318 -11.1936 -11.1933 -11.1498
   -11.1494 -11.1237 -11.1233 -11.1087 -11.1071 -11.1069 -11.1064 -11.1061
   -11.1061 -11.1015 -11.0987 -11.0987 -11.0960 -11.0960 -11.0903 -11.0868
   -10.9696 -10.9686 -10.9352 -10.9316 -10.8433 -10.8433 -10.8306 -10.8262
   -10.8137 -10.8094 -10.7803 -10.7802 -10.7586 -10.6986 -10.6520 -10.6516
   -10.6251 -10.6245 -10.5866 -10.5866 -10.5832 -10.5816 -10.5784 -10.5763
   -10.5745 -10.5744 -10.4981 -10.4972 -10.4969 -10.4909 -10.4867 -10.4418
   -10.4411 -10.3992 -10.3986 -10.3867 -10.3830 -10.3102 -10.2757 -10.2754
   -10.2130 -10.2123 -10.1767 -10.1765 -10.1758 -10.1457 -10.1444 -10.1440
   -10.1282 -10.1281 -10.0992 -10.0985 -10.0748 -10.0497 -10.0452 -10.0341
   -10.0339  -9.9742  -9.9704  -9.9156  -9.8772  -9.8740  -9.8625  -9.8621
    -9.8533  -9.8532  -9.8187  -9.8180  -9.8171  -9.8146  -9.8127  -9.8125
    -9.8124  -9.7975  -9.7873  -9.7827  -9.7746  -9.7703  -9.7698  -9.7689
    -9.7687  -9.7673  -9.7670  -9.7607  -9.7605  -9.7574  -9.7543  -9.7532
    -9.7532  -9.7509  -9.7508  -9.6990  -9.6969  -9.6967  -9.6882  -9.6881
    -9.6755  -9.6714  -9.6713  -9.6692  -9.6080  -9.6079  -9.6016  -9.5941
    -9.5884  -9.5880  -9.5877  -9.5131  -9.5124  -9.5102  -9.5039  -9.4998
    -9.4947  -9.4709  -9.4700  -9.4689  -9.4666  -9.4558  -9.4557  -9.4101
    -9.4094  -9.4035  -9.3951  -9.3928  -9.3756  -9.3719  -9.3717  -9.3707
    -9.3702  -9.3695  -9.3694  -9.3388  -9.3106  -9.3093  -9.3071  -9.3046
    -9.3022  -9.2980  -9.2746  -9.2699  -9.2632  -9.2630  -9.2457  -9.2457
    -9.2029  -9.2028  -9.1911  -9.1897  -9.1896  -9.1594  -9.1093  -9.1074
    -9.1045  -9.1012  -9.0972  -9.0970  -9.0831  -9.0794  -9.0779  -9.0716
    -9.0709  -9.0617  -9.0614  -9.0567  -9.0562  -9.0152  -9.0084  -9.0081
    -9.0080  -8.9862  -8.9807  -8.9800  -8.9764  -8.9747  -8.9746  -8.9146
    -8.9143  -8.9084  -8.9031  -8.8834  -8.8817  -8.8816  -8.8810  -8.8767
    -8.8763  -8.8634  -8.8624  -8.8620  -8.8617  -8.8568  -8.8568  -8.8505
    -8.8505  -8.8339  -8.8337  -8.8331  -8.8292  -8.8211  -8.8210  -8.8195
    -8.8195  -8.8173  -8.8173  -8.8156  -8.8153  -8.8153  -8.8101  -8.8078
    -8.8063  -8.8021  -8.8020  -8.7921  -8.7921  -8.7744  -8.7704  -8.7692
    -8.7691  -8.7434  -8.7405  -8.6948  -8.6930  -8.6928  -8.6903  -8.6622
    -8.6620  -8.6520  -8.6518  -8.6435  -8.6433  -8.6250  -8.6216  -8.6202
    -8.6175  -8.5821  -8.5817  -8.5805  -8.5788  -8.5788  -8.5601  -8.5600
    -8.5525  -8.5523  -8.5336  -8.5250  -8.5239  -8.5058  -8.5054  -8.4998
    -8.4983  -8.4690  -8.4688  -8.4669  -8.4395  -8.4393  -8.4353  -8.4321
    -8.4317  -8.4307  -8.4270  -8.4269  -8.4265  -8.4263  -8.4059  -8.4058
    -8.3992  -8.3989  -8.3974  -8.3942  -8.3595  -8.3594  -8.3490  -8.3415
    -8.3331  -8.3331  -8.3157  -8.3105  -8.3104  -8.2363  -8.2235  -8.2215
    -8.2165  -8.2154  -8.2153  -8.2011  -8.2008  -8.1999  -8.1995  -8.1992
    -8.1991  -8.1590  -8.1514  -8.1498  -8.1491  -8.1381  -8.1373  -8.1367
    -8.1362  -8.1268  -8.1266  -8.1246  -8.1105  -8.1103  -8.0810  -8.0660
    -8.0592  -8.0148  -8.0148  -7.9798  -7.9654  -7.9543  -7.9537  -7.9535
    -7.9528  -7.9496  -7.9483  -7.9483  -7.9469  -7.8929  -7.8926  -7.8885
    -7.8525  -7.8520  -7.8380  -7.8191  -7.8023  -7.8022  -7.7719  -7.7686
    -7.7622  -7.7552  -7.7532  -7.7522  -7.7347  -7.7327  -7.7100  -7.7098
    -7.7049  -7.7048  -7.7027  -7.6952  -7.6506  -7.6504  -7.6358  -7.6356
    -7.6055  -7.5862  -7.5816  -7.5358  -7.5310  -7.5213  -7.5204  -7.5089
    -7.5085  -7.5071  -7.5049  -7.5048  -7.4991  -7.4873  -7.4871  -7.4789
    -7.4786  -7.4727  -7.4721  -7.4695  -7.4633  -7.4609  -7.4346  -7.4319
    -7.4185  -7.4161  -7.3751  -7.3656  -7.3654  -7.3537  -7.3536  -7.3525
    -7.3506  -7.3323  -7.3305  -7.2752  -7.2749  -7.2496  -7.2491  -7.1970
    -7.1966  -7.1800  -7.1781  -7.1665  -7.1615  -7.1487  -7.1483  -7.1439
    -7.1438  -7.1434  -7.1422  -7.1058  -7.1039  -7.0942  -7.0923  -7.0914
    -7.0846  -7.0845  -7.0738  -7.0723  -7.0453  -7.0450  -7.0183  -7.0141
    -6.9301  -6.9281  -6.9252  -6.9241  -6.8811  -6.8810  -6.8561  -6.8560
    -6.8293  -6.8275  -6.8259  -6.8134  -6.8092  -6.7971  -6.7962  -6.7643
    -6.7638  -6.7619  -6.7591  -6.7545  -6.7123  -6.7117  -6.6904  -6.6890
    -6.6674  -6.6653  -6.6643  -6.6621  -6.6354  -6.6348  -6.6310  -6.6043
    -6.6039  -6.5904  -6.5591  -6.5580  -6.5546  -6.5541  -6.5539  -6.5536
    -6.5528  -6.5524  -6.4944  -6.4931  -6.4533  -6.4527  -6.4295  -6.4241
    -6.4137  -6.4106  -6.4079  -6.3933  -6.3927  -6.3720  -6.3720  -6.3424
    -6.3358  -6.3353  -6.3341  -6.3278  -6.3262  -6.3034  -6.2958  -6.2489
    -6.2476  -6.2427  -6.2413  -6.2393  -6.2360  -6.2348  -6.2347  -6.1964
    -6.1943  -6.1904  -6.1548  -6.1513  -6.0988  -6.0906  -6.0875  -6.0426
    -6.0381  -6.0266  -6.0259  -6.0193  -6.0183  -6.0165  -6.0010  -5.9908
    -5.9847  -5.9394  -5.9369  -5.9094  -5.9045  -5.8976  -5.8924  -5.8908
    -5.8781  -5.8707  -5.8701  -5.8698  -5.8681  -5.8680  -5.8676  -5.8271
    -5.7990  -5.7967  -5.7933  -5.7909  -5.7426  -5.7372  -5.7192  -5.7154
    -5.6545  -5.6516  -5.6460  -5.6439  -5.6005  -5.5937  -5.5837  -5.5814
    -5.5709  -5.5701  -5.5600  -5.5438  -5.5351  -5.5331  -5.5316  -5.5228
    -5.5209  -5.5134  -5.5126  -5.5118  -5.5082  -5.4969  -5.4966  -5.4934
    -5.4933  -5.4643  -5.4633  -5.4628  -5.4105  -5.3642  -5.3616  -5.3329
    -5.3240  -5.3228  -5.3183  -5.3178  -5.3168  -5.3081  -5.2747  -5.2471
    -5.2445  -5.2257  -5.2196  -5.1951  -5.1943  -5.1938  -5.1746  -5.1739
    -5.0389  -5.0294  -5.0190  -5.0154  -5.0079  -4.9574  -4.9473  -4.9461
    -4.9315  -4.9145  -4.9079  -4.8438  -4.8381  -4.8291  -4.8250  -4.8162
    -4.7724  -4.7117  -4.6688  -4.6525  -0.1622  -0.1178  -0.0439  -0.0149
     0.0052   0.0178   0.0201   0.0316   0.0421   0.0761   0.0947   0.1062
     0.1240   0.1356   0.1401   0.1409   0.1450   0.1478   0.1596   0.1636
     0.1709

          k = 0.3333 0.3849 0.0000 (****** PWs)   bands (ev):

   -24.0324 -22.3339 -22.2988 -22.2901 -22.2693 -22.2259 -22.1980 -22.1947
   -22.1727 -22.1643 -22.1415 -22.1206 -22.0983 -22.0949 -22.0430 -22.0262
   -22.0179 -21.9913 -21.9693 -21.9295 -21.9241 -21.8999 -21.8985 -21.8949
   -21.8279 -21.8240 -21.8051 -21.8027 -21.7771 -21.7729 -21.7322 -21.7104
   -21.7067 -21.6821 -21.6533 -21.6309 -21.5879 -21.5846 -21.5571 -21.5420
   -21.5209 -21.5166 -21.5082 -21.4906 -21.4642 -21.4246 -21.4228 -21.3937
   -21.3702 -21.3537 -21.3314 -21.3273 -21.3030 -21.2766 -21.2607 -21.2316
   -21.2158 -21.2111 -21.2087 -21.1870 -21.1489 -21.1456 -21.1225 -21.1197
   -21.0972 -21.0723 -21.0351 -20.9927 -20.9886 -20.9691 -20.9661 -20.9499
   -20.9384 -20.9014 -20.8526 -20.8353 -20.8314 -20.8151 -20.7987 -20.7961
   -20.7904 -20.7895 -20.7712 -20.7212 -20.7086 -20.7082 -20.6938 -20.6784
   -20.6590 -20.6472 -20.6410 -20.6385 -20.6140 -20.5800 -20.5364 -20.5322
   -20.4866 -20.4779 -20.4544 -20.4540 -20.4447 -20.4365 -20.3897 -20.3881
   -20.3641 -20.3490 -20.3249 -20.3058 -20.3044 -20.2735 -20.2719 -20.2583
   -20.2492 -20.2321 -20.1842 -20.1817 -20.1718 -20.1625 -20.1578 -20.1391
   -20.1305 -20.1208 -20.1005 -20.0854 -20.0661 -20.0636 -20.0560 -20.0359
   -20.0207 -20.0021 -20.0010 -19.9985 -19.9567 -19.9561 -19.9397 -19.9193
   -19.9010 -19.8990 -19.8711 -19.8423 -19.8384 -19.8079 -19.7892 -19.7691
   -19.7643 -19.7637 -19.7394 -19.7163 -19.7125 -19.7110 -19.6973 -19.6702
   -19.6537 -19.6503 -19.6440 -19.6265 -19.6208 -19.6198 -19.6153 -19.6133
   -19.6109 -19.5893 -19.5640 -19.5411 -19.5396 -19.5381 -19.5305 -19.5216
   -19.5192 -19.5150 -19.5008 -19.4983 -19.4926 -19.4896 -19.4658 -19.4472
   -19.4430 -19.4079 -19.3982 -19.3944 -19.3754 -19.3639 -19.3616 -19.3599
   -19.3492 -19.3477 -19.3375 -19.3373 -19.3369 -19.3238 -19.3111 -19.2893
   -19.2857 -19.2798 -19.2748 -19.2676 -19.2613 -19.2516 -19.2505 -19.2384
   -19.2373 -19.2231 -19.2180 -19.2142 -19.2086 -19.2064 -19.2017 -19.2004
   -19.1992 -19.1985 -19.1917 -19.1913 -19.1679 -19.1601 -19.1474 -19.1418
   -19.1413 -19.1343 -19.1336 -19.1274 -19.1243 -19.0949 -19.0928 -19.0847
   -19.0768 -19.0705 -19.0670 -19.0624 -19.0609 -19.0586 -19.0243 -19.0023
   -18.9755 -18.9590 -18.9552 -18.9444 -18.9238 -18.9178 -18.9146 -18.9114
   -18.9109 -18.8691 -18.8612 -18.8533 -18.8513 -18.8427 -18.8347 -18.8078
   -18.7873 -18.7656 -18.7632 -18.7513 -18.7182 -18.7118 -18.7096 -18.6808
   -18.6735 -13.5424 -13.5254 -13.5176 -13.4987 -13.4983 -13.4891 -13.4818
   -13.4345 -13.4225 -13.4176 -13.3999 -13.3989 -13.3882 -13.3868 -13.3722
   -13.3366 -13.3343 -13.3265 -13.3198 -13.3067 -13.2988 -13.2821 -13.2777
   -13.2718 -13.2687 -13.2327 -13.2187 -13.2064 -13.2006 -13.1703 -13.1671
   -13.1457 -13.1138 -13.0999 -13.0990 -13.0938 -13.0874 -13.0664 -13.0550
   -13.0348 -13.0340 -13.0157 -13.0146 -12.9654 -12.9617 -12.9555 -12.9526
   -12.9465 -12.9423 -12.9393 -12.9338 -12.9167 -12.8987 -12.8967 -12.8818
   -12.8793 -12.8651 -12.8615 -12.8587 -12.8133 -12.7926 -12.7870 -12.7864
   -12.7767 -12.7759 -12.7753 -12.7509 -12.7402 -12.7354 -12.7265 -12.7253
   -12.7157 -12.7131 -12.6935 -12.6875 -12.6723 -12.6708 -12.6687 -12.6658
   -12.6647 -12.6589 -12.6468 -12.6425 -12.6293 -12.6283 -12.6164 -12.6053
   -12.6029 -12.5862 -12.5768 -12.5727 -12.5689 -12.5675 -12.5603 -12.5556
   -12.5434 -12.5413 -12.5072 -12.4781 -12.4699 -12.4656 -12.4534 -12.4185
   -12.4121 -12.4102 -12.4034 -12.4005 -12.3882 -12.3578 -12.3050 -12.2401
   -12.2335 -12.2206 -12.2098 -12.1242 -12.1107 -12.0999 -12.0751 -12.0376
   -12.0253 -11.9860 -11.9512 -11.9320 -11.9264 -11.9176 -11.9147 -11.9045
   -11.8923 -11.8794 -11.8772 -11.8642 -11.8618 -11.8416 -11.8212 -11.8049
   -11.7796 -11.7664 -11.7624 -11.7196 -11.6507 -11.6352 -11.6126 -11.6122
   -11.6044 -11.6006 -11.5559 -11.5507 -11.5354 -11.5334 -11.5327 -11.5231
   -11.5175 -11.5162 -11.5114 -11.5053 -11.5047 -11.4685 -11.4298 -11.4214
   -11.3550 -11.3234 -11.3166 -11.3086 -11.3072 -11.3008 -11.2557 -11.2103
   -11.2099 -11.1576 -11.1486 -11.1476 -11.1432 -11.1135 -11.0763 -11.0709
   -11.0674 -11.0031 -10.9991 -10.9538 -10.9201 -10.9186 -10.9040 -10.8905
   -10.8891 -10.8771 -10.8572 -10.8492 -10.8485 -10.8328 -10.7905 -10.7774
   -10.7744 -10.7187 -10.7105 -10.7019 -10.6858 -10.6842 -10.6833 -10.6812
   -10.6679 -10.6662 -10.6576 -10.6503 -10.6440 -10.6073 -10.5761 -10.5743
   -10.5586 -10.5554 -10.5382 -10.5089 -10.4854 -10.4176 -10.4013 -10.3691
   -10.3645 -10.3635 -10.3565 -10.3473 -10.3286 -10.3271 -10.3261 -10.2812
   -10.2762 -10.2653 -10.2512 -10.2222 -10.2200 -10.2157 -10.2072 -10.1994
   -10.1887 -10.1638 -10.1444 -10.1354 -10.1011 -10.1004 -10.0698 -10.0677
   -10.0639 -10.0328 -10.0327 -10.0080  -9.9924  -9.9722  -9.9718  -9.9525
    -9.9325  -9.9155  -9.9085  -9.8983  -9.8879  -9.8751  -9.8747  -9.8734
    -9.8678  -9.8659  -9.8532  -9.8530  -9.8347  -9.8266  -9.8232  -9.7746
    -9.7668  -9.7307  -9.7225  -9.7168  -9.7144  -9.6955  -9.6842  -9.6776
    -9.6619  -9.6543  -9.6532  -9.6467  -9.6237  -9.6234  -9.6142  -9.6140
    -9.6120  -9.5951  -9.5911  -9.5714  -9.5698  -9.5618  -9.5507  -9.5440
    -9.5428  -9.5206  -9.4974  -9.4858  -9.4750  -9.4633  -9.4534  -9.4513
    -9.4500  -9.4492  -9.4482  -9.4206  -9.4067  -9.3891  -9.3854  -9.3847
    -9.3828  -9.3820  -9.3800  -9.3674  -9.3569  -9.3526  -9.3360  -9.3321
    -9.3287  -9.3284  -9.3256  -9.3197  -9.3157  -9.3123  -9.3089  -9.3035
    -9.2938  -9.2721  -9.2418  -9.2321  -9.2307  -9.2238  -9.2168  -9.2099
    -9.1989  -9.1981  -9.1928  -9.1892  -9.1827  -9.1807  -9.1622  -9.1619
    -9.1591  -9.1562  -9.1553  -9.1529  -9.1522  -9.1509  -9.1145  -9.1092
    -9.1001  -9.0776  -9.0707  -9.0646  -9.0548  -9.0539  -9.0471  -9.0439
    -9.0429  -9.0343  -9.0327  -9.0221  -9.0051  -8.9987  -8.9931  -8.9674
    -8.9656  -8.9625  -8.9617  -8.9608  -8.9603  -8.9562  -8.9408  -8.9383
    -8.9138  -8.9055  -8.8987  -8.8947  -8.8912  -8.8720  -8.8678  -8.8639
    -8.8632  -8.8569  -8.8418  -8.8413  -8.8387  -8.8279  -8.8264  -8.8153
    -8.8131  -8.8071  -8.8046  -8.8044  -8.8018  -8.7964  -8.7922  -8.7860
    -8.7731  -8.7670  -8.7626  -8.7579  -8.7519  -8.7457  -8.7362  -8.7264
    -8.7159  -8.6996  -8.6953  -8.6875  -8.6829  -8.6799  -8.6792  -8.6776
    -8.6770  -8.6644  -8.6602  -8.6553  -8.6464  -8.6405  -8.6221  -8.6160
    -8.6148  -8.6137  -8.6131  -8.6083  -8.5996  -8.5992  -8.5947  -8.5836
    -8.5622  -8.5554  -8.5542  -8.5505  -8.5339  -8.5184  -8.5163  -8.5102
    -8.5052  -8.4868  -8.4851  -8.4839  -8.4813  -8.4685  -8.4674  -8.4589
    -8.4257  -8.4199  -8.4089  -8.3985  -8.3935  -8.3909  -8.3892  -8.3869
    -8.3581  -8.3497  -8.3449  -8.3426  -8.3310  -8.3223  -8.3087  -8.3083
    -8.3082  -8.3037  -8.3001  -8.2981  -8.2717  -8.2706  -8.2667  -8.2654
    -8.2620  -8.2477  -8.2351  -8.2339  -8.2095  -8.2022  -8.2016  -8.1979
    -8.1860  -8.1642  -8.1633  -8.1513  -8.1350  -8.0966  -8.0853  -8.0620
    -8.0608  -8.0601  -8.0556  -8.0527  -8.0462  -8.0349  -8.0168  -8.0114
    -8.0093  -7.9735  -7.9731  -7.9701  -7.9670  -7.9639  -7.9576  -7.9560
    -7.9506  -7.9228  -7.9073  -7.9012  -7.8903  -7.8861  -7.8806  -7.8794
    -7.8692  -7.8563  -7.8355  -7.8353  -7.8215  -7.8186  -7.8124  -7.8104
    -7.8093  -7.8017  -7.7983  -7.7902  -7.7801  -7.7745  -7.7579  -7.7211
    -7.7129  -7.7079  -7.7070  -7.6973  -7.6957  -7.6919  -7.6682  -7.6602
    -7.6551  -7.6280  -7.6216  -7.6140  -7.6135  -7.6105  -7.6025  -7.5936
    -7.5696  -7.5664  -7.5580  -7.5578  -7.5230  -7.5219  -7.5159  -7.5077
    -7.4693  -7.4571  -7.4552  -7.4511  -7.3954  -7.3859  -7.3745  -7.3740
    -7.3667  -7.3454  -7.3445  -7.3420  -7.3418  -7.3370  -7.3326  -7.3275
    -7.3162  -7.3084  -7.2710  -7.2628  -7.2510  -7.2486  -7.2448  -7.2447
    -7.2167  -7.2032  -7.1961  -7.1804  -7.1754  -7.1590  -7.1520  -7.1504
    -7.1382  -7.1331  -7.1318  -7.1311  -7.0900  -7.0857  -7.0671  -7.0570
    -7.0526  -7.0275  -6.9936  -6.9592  -6.9590  -6.9543  -6.9522  -6.9464
    -6.9283  -6.9246  -6.9232  -6.9206  -6.9000  -6.8990  -6.8851  -6.8821
    -6.8798  -6.8737  -6.8609  -6.8422  -6.8218  -6.7960  -6.7943  -6.7792
    -6.7789  -6.7772  -6.7711  -6.7616  -6.7528  -6.7479  -6.7244  -6.7213
    -6.7034  -6.7020  -6.6943  -6.6805  -6.6671  -6.6405  -6.6381  -6.6363
    -6.6186  -6.6148  -6.5949  -6.5919  -6.5792  -6.5720  -6.5582  -6.5522
    -6.5512  -6.5341  -6.5160  -6.4741  -6.4627  -6.4512  -6.4457  -6.4427
    -6.4259  -6.3984  -6.3842  -6.3605  -6.3556  -6.3546  -6.3531  -6.3166
    -6.3159  -6.3069  -6.2910  -6.2871  -6.2776  -6.2668  -6.2639  -6.2524
    -6.2396  -6.2185  -6.2065  -6.1986  -6.1863  -6.1749  -6.1629  -6.1611
    -6.1482  -6.1459  -6.1444  -6.1364  -6.1257  -6.1239  -6.1069  -6.0959
    -6.0739  -6.0648  -6.0602  -6.0475  -6.0340  -6.0230  -6.0203  -6.0189
    -6.0096  -6.0037  -6.0013  -5.9885  -5.9721  -5.9627  -5.9576  -5.9495
    -5.9188  -5.8969  -5.8783  -5.8488  -5.8167  -5.8146  -5.7912  -5.7683
    -5.7636  -5.7624  -5.7431  -5.7274  -5.7251  -5.7212  -5.7174  -5.7135
    -5.6903  -5.6671  -5.6503  -5.6272  -5.6206  -5.6152  -5.6049  -5.5986
    -5.5756  -5.5750  -5.5624  -5.5504  -5.5411  -5.5291  -5.5267  -5.5246
    -5.5190  -5.5137  -5.5134  -5.5082  -5.5031  -5.4962  -5.4952  -5.4508
    -5.4362  -5.4260  -5.4230  -5.4188  -5.4160  -5.4156  -5.3880  -5.3858
    -5.3444  -5.3428  -5.3323  -5.3179  -5.3142  -5.3135  -5.3081  -5.2942
    -5.2846  -5.2336  -5.2118  -5.1621  -5.1389  -5.1229  -5.1177  -5.0821
    -5.0684  -5.0673  -5.0585  -5.0578  -4.9873  -4.9791  -4.9696  -4.9679
    -4.9550  -4.9406  -4.8938  -4.8601  -4.8277  -4.8216  -4.8029  -4.7452
    -4.7380  -4.7353  -4.6867  -4.6739  -0.1519  -0.1075  -0.0890  -0.0580
     0.0163   0.0416   0.0520   0.0645   0.0801   0.0884   0.0953   0.1030
     0.1110   0.1248   0.1312   0.1499   0.1554   0.1632   0.1660   0.1702
     0.1745

     highest occupied, lowest unoccupied level (ev):    -4.6525   -0.1695

!    total energy              =  -10249.33008561 Ry
     total all-electron energy =    -40959.942211 Ry
     estimated scf accuracy    <       0.00000072 Ry

     The total energy is the sum of the following terms:
     one-electron contribution =  -90174.20140601 Ry
     hartree contribution      =   45498.55661372 Ry
     xc contribution           =   -2267.19339418 Ry
     ewald contribution        =   40077.22101559 Ry
     one-center paw contrib.   =   -3383.71291474 Ry

     convergence has been achieved in  11 iterations

     Writing all to output data dir ./hBN_water_Oup_Hdown.save/

     init_run     :    801.49s CPU    809.18s WALL (       1 calls)
     electrons    :  20289.38s CPU  20392.58s WALL (       1 calls)

     Called by init_run:
     wfcinit      :    776.52s CPU    783.28s WALL (       1 calls)
     potinit      :      3.23s CPU      3.34s WALL (       1 calls)
     hinit0       :      5.20s CPU      5.24s WALL (       1 calls)

     Called by electrons:
     c_bands      :  18579.15s CPU  18662.05s WALL (      11 calls)
     sum_band     :   1681.42s CPU   1694.04s WALL (      11 calls)
     v_of_rho     :      5.74s CPU      5.88s WALL (      12 calls)
     newd         :     21.32s CPU     28.80s WALL (      12 calls)
     PAW_pot      :      1.93s CPU      1.94s WALL (      12 calls)
     mix_rho      :      1.67s CPU      1.72s WALL (      11 calls)

     Called by c_bands:
     init_us_2    :     93.29s CPU     94.34s WALL (      92 calls)
     init_us_2:cp :     93.29s CPU     94.34s WALL (      92 calls)
     cegterg      :  18481.87s CPU  18561.63s WALL (      48 calls)

     Called by *egterg:
     cdiaghg      :    222.48s CPU    231.24s WALL (     563 calls)
     h_psi        :   9828.98s CPU   9867.32s WALL (     567 calls)
     s_psi        :   2790.16s CPU   2794.43s WALL (     567 calls)
     g_psi        :     14.24s CPU     14.28s WALL (     515 calls)

     Called by h_psi:
     h_psi:calbec :   2883.92s CPU   2887.25s WALL (     567 calls)
     vloc_psi     :   4111.17s CPU   4122.08s WALL (     567 calls)
     add_vuspsi   :   2805.38s CPU   2815.75s WALL (     567 calls)

     General routines
     calbec       :   3652.24s CPU   3656.13s WALL (     611 calls)
     fft          :      3.96s CPU      4.04s WALL (     132 calls)
     ffts         :      0.29s CPU      0.30s WALL (      11 calls)
     fftw         :   4033.07s CPU   4043.24s WALL (  342976 calls)

     Parallel routines

     PWSCF        :      5h53m CPU      5h56m WALL


   This run was terminated on:   1:56:57  26Oct2022            

=------------------------------------------------------------------------------=
   JOB DONE.
=------------------------------------------------------------------------------=
