[1666300980.053755] [rustyamd2:2125842:0]       rdmacm_cm.c:917  UCX  ERROR rdma_create_event_channel failed: Operation not permitted

     Program PWSCF v.7.1 starts on 20Oct2022 at 17:23: 0 
        Git branch: HEAD
        Last git commit: 564a7b486665e8dd0223d6e514b84195d1a96c10
        Last git commit date: Tue Jun 14 16:16:48 2022 +0000
        Last git commit subject: Merge branch 'update_version_number' into 'develop

     This program is part of the open-source Quantum ESPRESSO suite
     for quantum simulation of materials; please cite
         "P. Giannozzi et al., J. Phys.:Condens. Matter 21 395502 (2009);
         "P. Giannozzi et al., J. Phys.:Condens. Matter 29 465901 (2017);
         "P. Giannozzi et al., J. Chem. Phys. 152 154105 (2020);
          URL http://www.quantum-espresso.org", 
     in publications or presentations arising from this work. More details at
     http://www.quantum-espresso.org/quote

     Parallel version (MPI & OpenMP), running on       1 processor cores
     Number of MPI processes:                 1
     Threads/MPI process:                     1

     MPI processes distributed on     1 nodes
     449949 MiB available memory on the printing compute node when the environment starts

     Waiting for input...
     Reading input from standard input

     Current dimensions of program PWSCF are:
     Max number of different atomic species (ntypx) = 10
     Max number of k-points (npk) =  40000
     Max angular momentum in pseudopotentials (lmaxx) =  4
     file N.pbe-n-kjpaw_psl.1.0.0.UPF: wavefunction(s)  2S renormalized
     file O.pbe-n-kjpaw_psl.1.0.0.UPF: wavefunction(s)  2S 2P renormalized
     file H.pbe-kjpaw_psl.1.0.0.UPF: wavefunction(s)  1S renormalized
     Message from routine setup:
     using ibrav=0 with symmetry is DISCOURAGED, use correct ibrav instead

     Subspace diagonalization in iterative solution of the eigenvalue problem:
     a serial algorithm will be used


     G-vector sticks info
     --------------------
     sticks:   dense  smooth     PW     G-vecs:    dense   smooth      PW
     Sum         907     907    225               132361   132361   16469

     Using Slab Decomposition



     bravais-lattice index     =            0
     lattice parameter (alat)  =       9.4658  a.u.
     unit-cell volume          =    4399.1244 (a.u.)^3
     number of atoms/cell      =           11
     number of atomic types    =            4
     number of electrons       =        40.00
     number of Kohn-Sham states=           33
     kinetic-energy cutoff     =      36.7493  Ry
     charge density cutoff     =     146.9972  Ry
     scf convergence threshold =      1.0E-06
     mixing beta               =       0.7000
     number of iterations used =            8  plain     mixing
     Exchange-correlation= SLA  PW   PBX  PBC
                           (   1   4   3   4   0   0   0)

     celldm(1)=   9.465808  celldm(2)=   0.000000  celldm(3)=   0.000000
     celldm(4)=   0.000000  celldm(5)=   0.000000  celldm(6)=   0.000000

     crystal axes: (cart. coord. in units of alat)
               a(1) = (   1.000000   0.000000   0.000000 )  
               a(2) = (   0.000000   0.866026   0.000000 )  
               a(3) = (   0.000000   0.000000   5.989112 )  

     reciprocal axes: (cart. coord. in units 2 pi/alat)
               b(1) = (  1.000000  0.000000  0.000000 )  
               b(2) = (  0.000000  1.154700  0.000000 )  
               b(3) = (  0.000000  0.000000  0.166970 )  


     PseudoPot. # 1 for B  read from file:
     ./B.pbe-n-kjpaw_psl.1.0.0.UPF
     MD5 check sum: 8c825a5969375aca5c2c6ad5945b3059
     Pseudo is Projector augmented-wave + core cor, Zval =  3.0
     Generated using &quot;atomic&quot; code by A. Dal Corso  v.6.3
     Shape of augmentation charge: PSQ
     Using radial grid of 1059 points,  4 beta functions with: 
                l(1) =   0
                l(2) =   0
                l(3) =   1
                l(4) =   1
     Q(r) pseudized with 0 coefficients 


     PseudoPot. # 2 for N  read from file:
     ./N.pbe-n-kjpaw_psl.1.0.0.UPF
     MD5 check sum: 14c48229446f9f2d411169a3abcbc3fa
     Pseudo is Projector augmented-wave + core cor, Zval =  5.0
     Generated using &quot;atomic&quot; code by A. Dal Corso  v.6.3
     Shape of augmentation charge: PSQ
     Using radial grid of 1085 points,  4 beta functions with: 
                l(1) =   0
                l(2) =   0
                l(3) =   1
                l(4) =   1
     Q(r) pseudized with 0 coefficients 


     PseudoPot. # 3 for O  read from file:
     ./O.pbe-n-kjpaw_psl.1.0.0.UPF
     MD5 check sum: e99d9cef9b487d1ca56f5b95ecd0fd7a
     Pseudo is Projector augmented-wave + core cor, Zval =  6.0
     Generated using &quot;atomic&quot; code by A. Dal Corso  v.6.3
     Shape of augmentation charge: PSQ
     Using radial grid of 1095 points,  4 beta functions with: 
                l(1) =   0
                l(2) =   0
                l(3) =   1
                l(4) =   1
     Q(r) pseudized with 0 coefficients 


     PseudoPot. # 4 for H  read from file:
     ./H.pbe-kjpaw_psl.1.0.0.UPF
     MD5 check sum: d81a744832360e4a8af0b0b5b123bc2a
     Pseudo is Projector augmented-wave, Zval =  1.0
     Generated using &quot;atomic&quot; code by A. Dal Corso  v.6.3MaX
     Shape of augmentation charge: PSQ
     Using radial grid of  929 points,  2 beta functions with: 
                l(1) =   0
                l(2) =   0
     Q(r) pseudized with 0 coefficients 


     atomic species   valence    mass     pseudopotential
        B              3.00    10.81100     B ( 1.00)
        N              5.00    14.00670     N ( 1.00)
        O              6.00    15.99900     O ( 1.00)
        H              1.00     1.00784     H ( 1.00)

      2 Sym. Ops. (no inversion) found



   Cartesian axes

     site n.     atom                  positions (alat units)
         1           B   tau(   1) = (   0.7500000   0.1443379   1.1978224  )
         2           B   tau(   2) = (   0.2500000   0.1443379   1.1978224  )
         3           B   tau(   3) = (   0.0000000   0.5773507   1.1978224  )
         4           B   tau(   4) = (   0.5000000   0.5773507   1.1978224  )
         5           N   tau(   5) = (   0.7500000   0.7216877   1.1978224  )
         6           N   tau(   6) = (   0.2500000   0.7216877   1.1978224  )
         7           N   tau(   7) = (   0.0000000   0.2886749   1.1978224  )
         8           N   tau(   8) = (   0.5000000   0.2886749   1.1978224  )
         9           O   tau(   9) = (   0.0000000   0.0000000   1.8765864  )
        10           H   tau(  10) = (   0.0000000   0.1511154   1.7596250  )
        11           H   tau(  11) = (   0.0000000   0.7149102   1.7596250  )

     number of k points=     1
                       cart. coord. in units 2pi/alat
        k(    1) = (   0.0000000   0.0000000   0.0000000), wk =   2.0000000

     Dense  grid:   132361 G-vectors     FFT dimensions: (  40,  32, 225)

     Estimated max dynamical RAM per process >     210.49 MB

     Check: negative core charge=   -0.000014

     Initial potential from superposition of free atoms

     starting charge      39.9988, renormalised to      40.0000

     negative rho (up, down):  1.578E-02 0.000E+00
     Starting wfcs are   38 randomized atomic wfcs
     Checking if some PAW data can be deallocated... 

     total cpu time spent up to now is        3.8 secs

     per-process dynamical memory:   109.5 Mb

     Self-consistent Calculation

     iteration #  1     ecut=    36.75 Ry     beta= 0.70
     Davidson diagonalization with overlap
     ethr =  1.00E-02,  avg # of iterations = 10.0

     negative rho (up, down):  5.134E-02 0.000E+00

     total cpu time spent up to now is        5.9 secs

     total energy              =    -202.42295964 Ry
     estimated scf accuracy    <       2.24657685 Ry

     iteration #  2     ecut=    36.75 Ry     beta= 0.70
     Davidson diagonalization with overlap
     ethr =  5.62E-03,  avg # of iterations =  4.0

     negative rho (up, down):  5.428E-02 0.000E+00

     total cpu time spent up to now is        7.6 secs

     total energy              =    -202.94630969 Ry
     estimated scf accuracy    <       1.39172621 Ry

     iteration #  3     ecut=    36.75 Ry     beta= 0.70
     Davidson diagonalization with overlap
     ethr =  3.48E-03,  avg # of iterations =  2.0

     negative rho (up, down):  6.796E-02 0.000E+00

     total cpu time spent up to now is        9.1 secs

     total energy              =    -203.20076700 Ry
     estimated scf accuracy    <       0.02644213 Ry

     iteration #  4     ecut=    36.75 Ry     beta= 0.70
     Davidson diagonalization with overlap
     ethr =  6.61E-05,  avg # of iterations =  8.0

     negative rho (up, down):  6.994E-02 0.000E+00

     total cpu time spent up to now is       11.3 secs

     total energy              =    -203.23608925 Ry
     estimated scf accuracy    <       0.10840826 Ry

     iteration #  5     ecut=    36.75 Ry     beta= 0.70
     Davidson diagonalization with overlap
     ethr =  6.61E-05,  avg # of iterations =  4.0

     negative rho (up, down):  7.275E-02 0.000E+00

     total cpu time spent up to now is       12.8 secs

     total energy              =    -203.23429918 Ry
     estimated scf accuracy    <       0.02000397 Ry

     iteration #  6     ecut=    36.75 Ry     beta= 0.70
     Davidson diagonalization with overlap
     ethr =  5.00E-05,  avg # of iterations =  4.0

     negative rho (up, down):  7.399E-02 0.000E+00

     total cpu time spent up to now is       14.3 secs

     total energy              =    -203.23771276 Ry
     estimated scf accuracy    <       0.00013489 Ry

     iteration #  7     ecut=    36.75 Ry     beta= 0.70
     Davidson diagonalization with overlap
     ethr =  3.37E-07,  avg # of iterations =  5.0

     negative rho (up, down):  7.412E-02 0.000E+00

     total cpu time spent up to now is       16.1 secs

     total energy              =    -203.23774383 Ry
     estimated scf accuracy    <       0.00012949 Ry

     iteration #  8     ecut=    36.75 Ry     beta= 0.70
     Davidson diagonalization with overlap
     ethr =  3.24E-07,  avg # of iterations =  2.0

     negative rho (up, down):  7.411E-02 0.000E+00

     total cpu time spent up to now is       17.6 secs

     total energy              =    -203.23774744 Ry
     estimated scf accuracy    <       0.00002563 Ry

     iteration #  9     ecut=    36.75 Ry     beta= 0.70
     Davidson diagonalization with overlap
     ethr =  6.41E-08,  avg # of iterations =  4.0

     negative rho (up, down):  7.408E-02 0.000E+00

     total cpu time spent up to now is       19.1 secs

     End of self-consistent calculation

          k = 0.0000 0.0000 0.0000 ( 16469 PWs)   bands (ev):

   -24.1058 -23.0714 -20.1025 -20.0871 -19.9713 -14.3132 -13.0300 -13.0222
   -11.7728 -11.2951 -11.2862 -10.6938  -9.5381  -7.9349  -6.7000  -6.6967
    -6.5114  -6.4947  -6.2698  -5.7974  -1.2794  -0.7154  -0.5570   0.0163
     0.2697   0.2904   0.5596   0.9334   1.4655   1.7664   2.6825   2.9858
     3.8381

     highest occupied, lowest unoccupied level (ev):    -5.7974   -1.2794

!    total energy              =    -203.23775578 Ry
     total all-electron energy =      -790.237219 Ry
     estimated scf accuracy    <       0.00000079 Ry

     The total energy is the sum of the following terms:
     one-electron contribution =   -1854.27570556 Ry
     hartree contribution      =     934.88664881 Ry
     xc contribution           =     -44.26589136 Ry
     ewald contribution        =     822.71451897 Ry
     one-center paw contrib.   =     -62.29732663 Ry

     convergence has been achieved in   9 iterations

     Writing all to output data dir ./hBN_water_Oup_Hdown.save/

     init_run     :      3.48s CPU      3.57s WALL (       1 calls)
     electrons    :     14.83s CPU     15.34s WALL (       1 calls)

     Called by init_run:
     wfcinit      :      0.36s CPU      0.36s WALL (       1 calls)
     potinit      :      1.21s CPU      1.23s WALL (       1 calls)
     hinit0       :      1.80s CPU      1.83s WALL (       1 calls)

     Called by electrons:
     c_bands      :      8.29s CPU      8.33s WALL (       9 calls)
     sum_band     :      2.18s CPU      2.39s WALL (       9 calls)
     v_of_rho     :      1.33s CPU      1.35s WALL (      10 calls)
     newd         :      0.83s CPU      1.07s WALL (      10 calls)
     PAW_pot      :      2.50s CPU      2.50s WALL (      10 calls)
     mix_rho      :      0.13s CPU      0.14s WALL (       9 calls)

     Called by c_bands:
     init_us_2    :      0.07s CPU      0.08s WALL (      19 calls)
     init_us_2:cp :      0.07s CPU      0.08s WALL (      19 calls)
     cegterg      :      8.16s CPU      8.20s WALL (       9 calls)

     Called by *egterg:
     cdiaghg      :      0.06s CPU      0.06s WALL (      52 calls)
     h_psi        :      6.72s CPU      6.74s WALL (      53 calls)
     s_psi        :      0.34s CPU      0.35s WALL (      53 calls)
     g_psi        :      0.03s CPU      0.03s WALL (      43 calls)

     Called by h_psi:
     h_psi:calbec :      0.32s CPU      0.32s WALL (      53 calls)
     vloc_psi     :      6.03s CPU      6.04s WALL (      53 calls)
     add_vuspsi   :      0.35s CPU      0.35s WALL (      53 calls)

     General routines
     calbec       :      0.41s CPU      0.41s WALL (      62 calls)
     fft          :      0.36s CPU      0.39s WALL (     110 calls)
     ffts         :      0.03s CPU      0.03s WALL (       9 calls)
     fftw         :      6.58s CPU      6.59s WALL (    2047 calls)

     Parallel routines

     PWSCF        :     18.49s CPU     19.20s WALL


   This run was terminated on:  17:23:19  20Oct2022            

=------------------------------------------------------------------------------=
   JOB DONE.
=------------------------------------------------------------------------------=
