
     Program PWSCF v.7.1 starts on 25Oct2022 at 20: 0:44 
        Git branch: HEAD
        Last git commit: 564a7b486665e8dd0223d6e514b84195d1a96c10
        Last git commit date: Tue Jun 14 16:16:48 2022 +0000
        Last git commit subject: Merge branch 'update_version_number' into 'develop

     This program is part of the open-source Quantum ESPRESSO suite
     for quantum simulation of materials; please cite
         "P. Giannozzi et al., J. Phys.:Condens. Matter 21 395502 (2009);
         "P. Giannozzi et al., J. Phys.:Condens. Matter 29 465901 (2017);
         "P. Giannozzi et al., J. Chem. Phys. 152 154105 (2020);
          URL http://www.quantum-espresso.org", 
     in publications or presentations arising from this work. More details at
     http://www.quantum-espresso.org/quote

     Parallel version (MPI & OpenMP), running on     128 processor cores
     Number of MPI processes:               128
     Threads/MPI process:                     1

     MPI processes distributed on     1 nodes
     997764 MiB available memory on the printing compute node when the environment starts

     Reading input from scf.in

     Current dimensions of program PWSCF are:
     Max number of different atomic species (ntypx) = 10
     Max number of k-points (npk) =  40000
     Max angular momentum in pseudopotentials (lmaxx) =  4
     file O.pbe-n-kjpaw_psl.1.0.0.UPF: wavefunction(s)  2S 2P renormalized
     file H.pbe-kjpaw_psl.1.0.0.UPF: wavefunction(s)  1S renormalized
     Message from routine setup:
     using ibrav=0 with symmetry is DISCOURAGED, use correct ibrav instead

     R & G space division:  proc/nbgrp/npool/nimage =     128
     Subspace diagonalization in iterative solution of the eigenvalue problem:
     a serial algorithm will be used


     Parallelization info
     --------------------
     sticks:   dense  smooth     PW     G-vecs:    dense   smooth      PW
     Min         411     411    104                70949    70949    9060
     Max         412     412    105                70954    70954    9067
     Sum       52641   52641  13341              9081707  9081707 1160031

     Using Slab Decomposition



     bravais-lattice index     =            0
     lattice parameter (alat)  =      56.6918  a.u.
     unit-cell volume          =  182205.0314 (a.u.)^3
     number of atoms/cell      =            3
     number of atomic types    =            2
     number of electrons       =         8.00
     number of Kohn-Sham states=           25
     kinetic-energy cutoff     =      51.4490  Ry
     charge density cutoff     =     205.7961  Ry
     scf convergence threshold =      1.0E-06
     mixing beta               =       0.7000
     number of iterations used =            8  plain     mixing
     Exchange-correlation= SLA  PW   PBX  PBC
                           (   1   4   3   4   0   0   0)

     celldm(1)=  56.691784  celldm(2)=   0.000000  celldm(3)=   0.000000
     celldm(4)=   0.000000  celldm(5)=   0.000000  celldm(6)=   0.000000

     crystal axes: (cart. coord. in units of alat)
               a(1) = (   1.000000   0.000000   0.000000 )  
               a(2) = (   0.000000   1.000000   0.000000 )  
               a(3) = (   0.000000   0.000000   1.000000 )  

     reciprocal axes: (cart. coord. in units 2 pi/alat)
               b(1) = (  1.000000  0.000000  0.000000 )  
               b(2) = (  0.000000  1.000000  0.000000 )  
               b(3) = (  0.000000  0.000000  1.000000 )  


     PseudoPot. # 1 for O  read from file:
     ./O.pbe-n-kjpaw_psl.1.0.0.UPF
     MD5 check sum: e99d9cef9b487d1ca56f5b95ecd0fd7a
     Pseudo is Projector augmented-wave + core cor, Zval =  6.0
     Generated using &quot;atomic&quot; code by A. Dal Corso  v.6.3
     Shape of augmentation charge: PSQ
     Using radial grid of 1095 points,  4 beta functions with: 
                l(1) =   0
                l(2) =   0
                l(3) =   1
                l(4) =   1
     Q(r) pseudized with 0 coefficients 


     PseudoPot. # 2 for H  read from file:
     ./H.pbe-kjpaw_psl.1.0.0.UPF
     MD5 check sum: d81a744832360e4a8af0b0b5b123bc2a
     Pseudo is Projector augmented-wave, Zval =  1.0
     Generated using &quot;atomic&quot; code by A. Dal Corso  v.6.3MaX
     Shape of augmentation charge: PSQ
     Using radial grid of  929 points,  2 beta functions with: 
                l(1) =   0
                l(2) =   0
     Q(r) pseudized with 0 coefficients 


     atomic species   valence    mass     pseudopotential
        O              6.00    15.99900     O ( 1.00)
        H              1.00     1.00784     H ( 1.00)

      4 Sym. Ops. (no inversion) found



   Cartesian axes

     site n.     atom                  positions (alat units)
         1           O   tau(   1) = (   0.0000000   0.0000000   0.3133330  )
         2           H   tau(   2) = (   0.0000000   0.0252320   0.2938040  )
         3           H   tau(   3) = (   0.0000000   0.9747680   0.2938040  )

     number of k points=     7
                       cart. coord. in units 2pi/alat
        k(    1) = (   0.0000000   0.0000000   0.0000000), wk =   0.2222222
        k(    2) = (   0.0000000   0.3333333   0.0000000), wk =   0.2962963
        k(    3) = (   0.3333333   0.3333333   0.0000000), wk =   0.2962963
        k(    4) = (   0.3333333   0.0000000   0.0000000), wk =   0.2962963
        k(    5) = (   0.0000000   0.0000000   0.3333333), wk =   0.2962963
        k(    6) = (   0.0000000  -0.3333333   0.3333333), wk =   0.2962963
        k(    7) = (  -0.3333333   0.0000000   0.3333333), wk =   0.2962963

     Dense  grid:  9081707 G-vectors     FFT dimensions: ( 270, 270, 270)

     Estimated max dynamical RAM per process >     138.58 MB

     Estimated total dynamical RAM >      15.59 GB

     Initial potential from superposition of free atoms

     starting charge       8.0000, renormalised to       8.0000

     negative rho (up, down):  3.679E-02 0.000E+00
     Starting wfcs are    6 randomized atomic wfcs +   19 random wfcs
     Checking if some PAW data can be deallocated... 

     total cpu time spent up to now is       13.8 secs

     per-process dynamical memory:   172.1 Mb

     Self-consistent Calculation

     iteration #  1     ecut=    51.45 Ry     beta= 0.70
     Davidson diagonalization with overlap
     ethr =  1.00E-02,  avg # of iterations =  5.9

     negative rho (up, down):  4.459E-02 0.000E+00

     total cpu time spent up to now is       31.2 secs

     total energy              =     -43.83665093 Ry
     estimated scf accuracy    <       0.46096954 Ry

     iteration #  2     ecut=    51.45 Ry     beta= 0.70
     Davidson diagonalization with overlap
     ethr =  5.76E-03,  avg # of iterations =  2.6

     negative rho (up, down):  3.841E-02 0.000E+00

     total cpu time spent up to now is       39.7 secs

     total energy              =     -43.96430029 Ry
     estimated scf accuracy    <       0.33039393 Ry

     iteration #  3     ecut=    51.45 Ry     beta= 0.70
     Davidson diagonalization with overlap
     ethr =  4.13E-03,  avg # of iterations =  2.0

     negative rho (up, down):  3.789E-02 0.000E+00

     total cpu time spent up to now is       47.8 secs

     total energy              =     -44.02446839 Ry
     estimated scf accuracy    <       0.00907990 Ry

     iteration #  4     ecut=    51.45 Ry     beta= 0.70
     Davidson diagonalization with overlap
     ethr =  1.13E-04,  avg # of iterations = 15.4

     negative rho (up, down):  3.899E-02 0.000E+00

     total cpu time spent up to now is       81.8 secs

     total energy              =     -44.03621166 Ry
     estimated scf accuracy    <       0.01085117 Ry

     iteration #  5     ecut=    51.45 Ry     beta= 0.70
     Davidson diagonalization with overlap
     ethr =  1.13E-04,  avg # of iterations =  2.1

     negative rho (up, down):  3.975E-02 0.000E+00

     total cpu time spent up to now is       89.9 secs

     total energy              =     -44.03616760 Ry
     estimated scf accuracy    <       0.00202058 Ry

     iteration #  6     ecut=    51.45 Ry     beta= 0.70
     Davidson diagonalization with overlap
     c_bands:  1 eigenvalues not converged
     c_bands:  1 eigenvalues not converged
     ethr =  2.53E-05,  avg # of iterations = 14.0

     negative rho (up, down):  4.001E-02 0.000E+00

     total cpu time spent up to now is      113.8 secs

     total energy              =     -44.03715884 Ry
     estimated scf accuracy    <       0.00001972 Ry

     iteration #  7     ecut=    51.45 Ry     beta= 0.70
     Davidson diagonalization with overlap
     c_bands:  5 eigenvalues not converged
     c_bands:  1 eigenvalues not converged
     c_bands:  5 eigenvalues not converged
     ethr =  2.47E-07,  avg # of iterations = 30.3

     negative rho (up, down):  4.048E-02 0.000E+00

     total cpu time spent up to now is      170.3 secs

     total energy              =     -44.03724938 Ry
     estimated scf accuracy    <       0.00000588 Ry

     iteration #  8     ecut=    51.45 Ry     beta= 0.70
     Davidson diagonalization with overlap
     c_bands:  3 eigenvalues not converged
     ethr =  7.35E-08,  avg # of iterations =  9.7

     negative rho (up, down):  4.039E-02 0.000E+00

     total cpu time spent up to now is      183.3 secs

     total energy              =     -44.03722827 Ry
     estimated scf accuracy    <       0.00010022 Ry

     iteration #  9     ecut=    51.45 Ry     beta= 0.70
     Davidson diagonalization with overlap
     ethr =  7.35E-08,  avg # of iterations =  4.1

     negative rho (up, down):  4.037E-02 0.000E+00

     total cpu time spent up to now is      192.6 secs

     total energy              =     -44.03723442 Ry
     estimated scf accuracy    <       0.00000963 Ry

     iteration # 10     ecut=    51.45 Ry     beta= 0.70
     Davidson diagonalization with overlap
     ethr =  7.35E-08,  avg # of iterations =  1.0

     negative rho (up, down):  4.038E-02 0.000E+00

     total cpu time spent up to now is      200.1 secs

     total energy              =     -44.03723300 Ry
     estimated scf accuracy    <       0.00000458 Ry

     iteration # 11     ecut=    51.45 Ry     beta= 0.70
     Davidson diagonalization with overlap
     ethr =  5.72E-08,  avg # of iterations =  3.7

     negative rho (up, down):  4.037E-02 0.000E+00

     total cpu time spent up to now is      208.5 secs

     End of self-consistent calculation

          k = 0.0000 0.0000 0.0000 (****** PWs)   bands (ev):

   -25.4426 -13.2114  -9.3108  -7.2506  -0.9568  -0.1628  -0.0415  -0.0167
    -0.0132  -0.0108   0.0008   0.0360   0.1007   0.1392   0.1477   0.1551
     0.1559   0.1582   0.1624   0.1645   0.1685   0.1705   0.1717   0.2413
     0.3036

          k = 0.0000 0.3333 0.0000 (****** PWs)   bands (ev):

   -25.4426 -13.2114  -9.3108  -7.2506  -0.9568  -0.1503  -0.0963   0.0035
     0.0072   0.0108   0.0186   0.0569   0.0640   0.0647   0.0741   0.1294
     0.1724   0.1735   0.1849   0.1856   0.2176   0.2302   0.2310   0.2429
     0.2551

          k = 0.3333 0.3333 0.0000 (****** PWs)   bands (ev):

   -25.4426 -13.2114  -9.3108  -7.2506  -0.9568  -0.1343  -0.0907  -0.0621
    -0.0254   0.0223   0.0384   0.0674   0.0788   0.0894   0.0941   0.1243
     0.1344   0.1454   0.1695   0.1856   0.2154   0.2515   0.3014   0.3050
     0.3126

          k = 0.3333 0.0000 0.0000 (****** PWs)   bands (ev):

   -25.4426 -13.2114  -9.3108  -7.2506  -0.9568  -0.1457  -0.0939  -0.0318
     0.0001   0.0137   0.0332   0.0620   0.0683   0.0747   0.0870   0.1258
     0.1435   0.1716   0.1718   0.2058   0.2306   0.2371   0.2427   0.2452
     0.2810

          k = 0.0000 0.0000 0.3333 (****** PWs)   bands (ev):

   -25.4426 -13.2114  -9.3108  -7.2506  -0.9568  -0.1459  -0.0924  -0.0310
     0.0024   0.0051   0.0372   0.0572   0.0652   0.0706   0.0953   0.1274
     0.1471   0.1674   0.1796   0.2054   0.2253   0.2392   0.2444   0.2564
     0.2788

          k = 0.0000-0.3333 0.3333 (****** PWs)   bands (ev):

   -25.4426 -13.2114  -9.3108  -7.2506  -0.9568  -0.1337  -0.0893  -0.0654
    -0.0249   0.0228   0.0398   0.0656   0.0778   0.0898   0.0934   0.1231
     0.1384   0.1459   0.1653   0.1842   0.2156   0.2519   0.2984   0.2990
     0.3075

          k =-0.3333 0.0000 0.3333 (****** PWs)   bands (ev):

   -25.4426 -13.2114  -9.3108  -7.2506  -0.9568  -0.1290  -0.0806  -0.0714
    -0.0226  -0.0205   0.0467   0.0687   0.0838   0.0899   0.1034   0.1353
     0.1405   0.1441   0.1726   0.1946   0.2140   0.2585   0.2912   0.2958
     0.3118

     highest occupied, lowest unoccupied level (ev):    -7.2506   -0.9568

!    total energy              =     -44.03723432 Ry
     total all-electron energy =      -152.884116 Ry
     estimated scf accuracy    <       0.00000010 Ry

     The total energy is the sum of the following terms:
     one-electron contribution =     -75.95604227 Ry
     hartree contribution      =      39.61815557 Ry
     xc contribution           =      -8.87763575 Ry
     ewald contribution        =      10.76524305 Ry
     one-center paw contrib.   =      -9.58695491 Ry

     convergence has been achieved in  11 iterations

     Writing all to output data dir ./water_Oup_Hdown.save/

     init_run     :     12.17s CPU     12.75s WALL (       1 calls)
     electrons    :    192.95s CPU    195.30s WALL (       1 calls)

     Called by init_run:
     wfcinit      :      2.78s CPU      2.94s WALL (       1 calls)
     potinit      :      0.53s CPU      0.61s WALL (       1 calls)
     hinit0       :      0.51s CPU      0.68s WALL (       1 calls)

     Called by electrons:
     c_bands      :    170.42s CPU    171.18s WALL (      11 calls)
     sum_band     :     17.16s CPU     17.60s WALL (      11 calls)
     v_of_rho     :      3.21s CPU      3.50s WALL (      12 calls)
     newd         :      1.13s CPU      1.49s WALL (      12 calls)
     PAW_pot      :      0.11s CPU      0.11s WALL (      12 calls)
     mix_rho      :      0.88s CPU      0.93s WALL (      11 calls)

     Called by c_bands:
     init_us_2    :      0.26s CPU      0.27s WALL (     161 calls)
     init_us_2:cp :      0.26s CPU      0.27s WALL (     161 calls)
     cegterg      :    169.61s CPU    170.11s WALL (      82 calls)

     Called by *egterg:
     cdiaghg      :      0.54s CPU      0.55s WALL (     718 calls)
     h_psi        :    142.07s CPU    142.43s WALL (     725 calls)
     s_psi        :      1.11s CPU      1.12s WALL (     725 calls)
     g_psi        :      0.28s CPU      0.28s WALL (     636 calls)

     Called by h_psi:
     h_psi:calbec :      2.07s CPU      2.09s WALL (     725 calls)
     vloc_psi     :    137.53s CPU    137.83s WALL (     725 calls)
     add_vuspsi   :      1.25s CPU      1.26s WALL (     725 calls)

     General routines
     calbec       :      2.31s CPU      2.33s WALL (     802 calls)
     fft          :      2.18s CPU      2.39s WALL (     132 calls)
     ffts         :      0.17s CPU      0.17s WALL (      11 calls)
     fftw         :    130.09s CPU    130.36s WALL (   22203 calls)

     Parallel routines

     PWSCF        :   3m28.44s CPU   3m35.44s WALL


   This run was terminated on:  20: 4:20  25Oct2022            

=------------------------------------------------------------------------------=
   JOB DONE.
=------------------------------------------------------------------------------=
