
     Program PWSCF v.7.1 starts on 25Oct2022 at 20: 0:47 
        Git branch: HEAD
        Last git commit: 564a7b486665e8dd0223d6e514b84195d1a96c10
        Last git commit date: Tue Jun 14 16:16:48 2022 +0000
        Last git commit subject: Merge branch 'update_version_number' into 'develop

     This program is part of the open-source Quantum ESPRESSO suite
     for quantum simulation of materials; please cite
         "P. Giannozzi et al., J. Phys.:Condens. Matter 21 395502 (2009);
         "P. Giannozzi et al., J. Phys.:Condens. Matter 29 465901 (2017);
         "P. Giannozzi et al., J. Chem. Phys. 152 154105 (2020);
          URL http://www.quantum-espresso.org", 
     in publications or presentations arising from this work. More details at
     http://www.quantum-espresso.org/quote

     Parallel version (MPI & OpenMP), running on     128 processor cores
     Number of MPI processes:               128
     Threads/MPI process:                     1

     MPI processes distributed on     1 nodes
     994872 MiB available memory on the printing compute node when the environment starts

     Reading input from scf.in

     Current dimensions of program PWSCF are:
     Max number of different atomic species (ntypx) = 10
     Max number of k-points (npk) =  40000
     Max angular momentum in pseudopotentials (lmaxx) =  4
     file N.pbe-n-kjpaw_psl.1.0.0.UPF: wavefunction(s)  2S renormalized
     file O.pbe-n-kjpaw_psl.1.0.0.UPF: wavefunction(s)  2S 2P renormalized
     file H.pbe-kjpaw_psl.1.0.0.UPF: wavefunction(s)  1S renormalized
     Message from routine setup:
     using ibrav=0 with symmetry is DISCOURAGED, use correct ibrav instead

     R & G space division:  proc/nbgrp/npool/nimage =     128
     Subspace diagonalization in iterative solution of the eigenvalue problem:
     one sub-group per band group will be used
     scalapack distributed-memory algorithm (size of sub-group: 10* 10 procs)


     Parallelization info
     --------------------
     sticks:   dense  smooth     PW     G-vecs:    dense   smooth      PW
     Min         635     635    160               109655   109655   13948
     Max         636     636    161               109660   109660   13955
     Sum       81311   81311  20563             14036177 14036177 1785661

     Using Slab Decomposition



     bravais-lattice index     =            0
     lattice parameter (alat)  =      75.7265  a.u.
     unit-cell volume          =  281543.9584 (a.u.)^3
     number of atoms/cell      =          515
     number of atomic types    =            4
     number of electrons       =      2056.00
     number of Kohn-Sham states=         1049
     kinetic-energy cutoff     =      51.4490  Ry
     charge density cutoff     =     205.7961  Ry
     scf convergence threshold =      1.0E-06
     mixing beta               =       0.7000
     number of iterations used =            8  plain     mixing
     Exchange-correlation= SLA  PW   PBX  PBC
                           (   1   4   3   4   0   0   0)

     celldm(1)=  75.726466  celldm(2)=   0.000000  celldm(3)=   0.000000
     celldm(4)=   0.000000  celldm(5)=   0.000000  celldm(6)=   0.000000

     crystal axes: (cart. coord. in units of alat)
               a(1) = (   1.000000   0.000000   0.000000 )  
               a(2) = (   0.000000   0.866026   0.000000 )  
               a(3) = (   0.000000   0.000000   0.748639 )  

     reciprocal axes: (cart. coord. in units 2 pi/alat)
               b(1) = (  1.000000  0.000000  0.000000 )  
               b(2) = (  0.000000  1.154700  0.000000 )  
               b(3) = (  0.000000  0.000000  1.335757 )  


     PseudoPot. # 1 for B  read from file:
     ./B.pbe-n-kjpaw_psl.1.0.0.UPF
     MD5 check sum: 8c825a5969375aca5c2c6ad5945b3059
     Pseudo is Projector augmented-wave + core cor, Zval =  3.0
     Generated using &quot;atomic&quot; code by A. Dal Corso  v.6.3
     Shape of augmentation charge: PSQ
     Using radial grid of 1059 points,  4 beta functions with: 
                l(1) =   0
                l(2) =   0
                l(3) =   1
                l(4) =   1
     Q(r) pseudized with 0 coefficients 


     PseudoPot. # 2 for N  read from file:
     ./N.pbe-n-kjpaw_psl.1.0.0.UPF
     MD5 check sum: 14c48229446f9f2d411169a3abcbc3fa
     Pseudo is Projector augmented-wave + core cor, Zval =  5.0
     Generated using &quot;atomic&quot; code by A. Dal Corso  v.6.3
     Shape of augmentation charge: PSQ
     Using radial grid of 1085 points,  4 beta functions with: 
                l(1) =   0
                l(2) =   0
                l(3) =   1
                l(4) =   1
     Q(r) pseudized with 0 coefficients 


     PseudoPot. # 3 for O  read from file:
     ./O.pbe-n-kjpaw_psl.1.0.0.UPF
     MD5 check sum: e99d9cef9b487d1ca56f5b95ecd0fd7a
     Pseudo is Projector augmented-wave + core cor, Zval =  6.0
     Generated using &quot;atomic&quot; code by A. Dal Corso  v.6.3
     Shape of augmentation charge: PSQ
     Using radial grid of 1095 points,  4 beta functions with: 
                l(1) =   0
                l(2) =   0
                l(3) =   1
                l(4) =   1
     Q(r) pseudized with 0 coefficients 


     PseudoPot. # 4 for H  read from file:
     ./H.pbe-kjpaw_psl.1.0.0.UPF
     MD5 check sum: d81a744832360e4a8af0b0b5b123bc2a
     Pseudo is Projector augmented-wave, Zval =  1.0
     Generated using &quot;atomic&quot; code by A. Dal Corso  v.6.3MaX
     Shape of augmentation charge: PSQ
     Using radial grid of  929 points,  2 beta functions with: 
                l(1) =   0
                l(2) =   0
     Q(r) pseudized with 0 coefficients 


     atomic species   valence    mass     pseudopotential
        B              3.00    10.81100     B ( 1.00)
        N              5.00    14.00670     N ( 1.00)
        O              6.00    15.99900     O ( 1.00)
        H              1.00     1.00784     H ( 1.00)

      2 Sym. Ops. (no inversion) found ( 1 have fractional translation)



   Cartesian axes

     site n.     atom                  positions (alat units)
         1           B   tau(   1) = (   0.9687500   0.0180422   0.1497278  )
         2           B   tau(   2) = (   0.9687500   0.1262954   0.1497278  )
         3           B   tau(   3) = (   0.9687500   0.2345486   0.1497278  )
         4           B   tau(   4) = (   0.9687500   0.3428018   0.1497278  )
         5           B   tau(   5) = (   0.9687500   0.4510550   0.1497278  )
         6           B   tau(   6) = (   0.9687500   0.5593082   0.1497278  )
         7           B   tau(   7) = (   0.9687500   0.6675614   0.1497278  )
         8           B   tau(   8) = (   0.9687500   0.7758146   0.1497278  )
         9           B   tau(   9) = (   0.0937500   0.0180422   0.1497278  )
        10           B   tau(  10) = (   0.0937500   0.1262954   0.1497278  )
        11           B   tau(  11) = (   0.0937500   0.2345486   0.1497278  )
        12           B   tau(  12) = (   0.0937500   0.3428018   0.1497278  )
        13           B   tau(  13) = (   0.0937500   0.4510550   0.1497278  )
        14           B   tau(  14) = (   0.0937500   0.5593082   0.1497278  )
        15           B   tau(  15) = (   0.0937500   0.6675614   0.1497278  )
        16           B   tau(  16) = (   0.0937500   0.7758146   0.1497278  )
        17           B   tau(  17) = (   0.2187500   0.0180422   0.1497278  )
        18           B   tau(  18) = (   0.2187500   0.1262954   0.1497278  )
        19           B   tau(  19) = (   0.2187500   0.2345486   0.1497278  )
        20           B   tau(  20) = (   0.2187500   0.3428018   0.1497278  )
        21           B   tau(  21) = (   0.2187500   0.4510550   0.1497278  )
        22           B   tau(  22) = (   0.2187500   0.5593082   0.1497278  )
        23           B   tau(  23) = (   0.2187500   0.6675614   0.1497278  )
        24           B   tau(  24) = (   0.2187500   0.7758146   0.1497278  )
        25           B   tau(  25) = (   0.3437500   0.0180422   0.1497278  )
        26           B   tau(  26) = (   0.3437500   0.1262954   0.1497278  )
        27           B   tau(  27) = (   0.3437500   0.2345486   0.1497278  )
        28           B   tau(  28) = (   0.3437500   0.3428018   0.1497278  )
        29           B   tau(  29) = (   0.3437500   0.4510550   0.1497278  )
        30           B   tau(  30) = (   0.3437500   0.5593082   0.1497278  )
        31           B   tau(  31) = (   0.3437500   0.6675614   0.1497278  )
        32           B   tau(  32) = (   0.3437500   0.7758146   0.1497278  )
        33           B   tau(  33) = (   0.4687500   0.0180422   0.1497278  )
        34           B   tau(  34) = (   0.4687500   0.1262954   0.1497278  )
        35           B   tau(  35) = (   0.4687500   0.2345486   0.1497278  )
        36           B   tau(  36) = (   0.4687500   0.3428018   0.1497278  )
        37           B   tau(  37) = (   0.4687500   0.4510550   0.1497278  )
        38           B   tau(  38) = (   0.4687500   0.5593082   0.1497278  )
        39           B   tau(  39) = (   0.4687500   0.6675614   0.1497278  )
        40           B   tau(  40) = (   0.4687500   0.7758146   0.1497278  )
        41           B   tau(  41) = (   0.5937500   0.0180422   0.1497278  )
        42           B   tau(  42) = (   0.5937500   0.1262954   0.1497278  )
        43           B   tau(  43) = (   0.5937500   0.2345486   0.1497278  )
        44           B   tau(  44) = (   0.5937500   0.3428018   0.1497278  )
        45           B   tau(  45) = (   0.5937500   0.4510550   0.1497278  )
        46           B   tau(  46) = (   0.5937500   0.5593082   0.1497278  )
        47           B   tau(  47) = (   0.5937500   0.6675614   0.1497278  )
        48           B   tau(  48) = (   0.5937500   0.7758146   0.1497278  )
        49           B   tau(  49) = (   0.7187500   0.0180422   0.1497278  )
        50           B   tau(  50) = (   0.7187500   0.1262954   0.1497278  )
        51           B   tau(  51) = (   0.7187500   0.2345486   0.1497278  )
        52           B   tau(  52) = (   0.7187500   0.3428018   0.1497278  )
        53           B   tau(  53) = (   0.7187500   0.4510550   0.1497278  )
        54           B   tau(  54) = (   0.7187500   0.5593082   0.1497278  )
        55           B   tau(  55) = (   0.7187500   0.6675614   0.1497278  )
        56           B   tau(  56) = (   0.7187500   0.7758146   0.1497278  )
        57           B   tau(  57) = (   0.8437500   0.0180422   0.1497278  )
        58           B   tau(  58) = (   0.8437500   0.1262954   0.1497278  )
        59           B   tau(  59) = (   0.8437500   0.2345486   0.1497278  )
        60           B   tau(  60) = (   0.8437500   0.3428018   0.1497278  )
        61           B   tau(  61) = (   0.8437500   0.4510550   0.1497278  )
        62           B   tau(  62) = (   0.8437500   0.5593082   0.1497278  )
        63           B   tau(  63) = (   0.8437500   0.6675614   0.1497278  )
        64           B   tau(  64) = (   0.8437500   0.7758146   0.1497278  )
        65           B   tau(  65) = (   0.0312500   0.0180422   0.1497278  )
        66           B   tau(  66) = (   0.0312500   0.1262954   0.1497278  )
        67           B   tau(  67) = (   0.0312500   0.2345486   0.1497278  )
        68           B   tau(  68) = (   0.0312500   0.3428018   0.1497278  )
        69           B   tau(  69) = (   0.0312500   0.4510550   0.1497278  )
        70           B   tau(  70) = (   0.0312500   0.5593082   0.1497278  )
        71           B   tau(  71) = (   0.0312500   0.6675614   0.1497278  )
        72           B   tau(  72) = (   0.0312500   0.7758146   0.1497278  )
        73           B   tau(  73) = (   0.1562500   0.0180422   0.1497278  )
        74           B   tau(  74) = (   0.1562500   0.1262954   0.1497278  )
        75           B   tau(  75) = (   0.1562500   0.2345486   0.1497278  )
        76           B   tau(  76) = (   0.1562500   0.3428018   0.1497278  )
        77           B   tau(  77) = (   0.1562500   0.4510550   0.1497278  )
        78           B   tau(  78) = (   0.1562500   0.5593082   0.1497278  )
        79           B   tau(  79) = (   0.1562500   0.6675614   0.1497278  )
        80           B   tau(  80) = (   0.1562500   0.7758146   0.1497278  )
        81           B   tau(  81) = (   0.2812500   0.0180422   0.1497278  )
        82           B   tau(  82) = (   0.2812500   0.1262954   0.1497278  )
        83           B   tau(  83) = (   0.2812500   0.2345486   0.1497278  )
        84           B   tau(  84) = (   0.2812500   0.3428018   0.1497278  )
        85           B   tau(  85) = (   0.2812500   0.4510550   0.1497278  )
        86           B   tau(  86) = (   0.2812500   0.5593082   0.1497278  )
        87           B   tau(  87) = (   0.2812500   0.6675614   0.1497278  )
        88           B   tau(  88) = (   0.2812500   0.7758146   0.1497278  )
        89           B   tau(  89) = (   0.4062500   0.0180422   0.1497278  )
        90           B   tau(  90) = (   0.4062500   0.1262954   0.1497278  )
        91           B   tau(  91) = (   0.4062500   0.2345486   0.1497278  )
        92           B   tau(  92) = (   0.4062500   0.3428018   0.1497278  )
        93           B   tau(  93) = (   0.4062500   0.4510550   0.1497278  )
        94           B   tau(  94) = (   0.4062500   0.5593082   0.1497278  )
        95           B   tau(  95) = (   0.4062500   0.6675614   0.1497278  )
        96           B   tau(  96) = (   0.4062500   0.7758146   0.1497278  )
        97           B   tau(  97) = (   0.5312500   0.0180422   0.1497278  )
        98           B   tau(  98) = (   0.5312500   0.1262954   0.1497278  )
        99           B   tau(  99) = (   0.5312500   0.2345486   0.1497278  )
       100           B   tau( 100) = (   0.5312500   0.3428018   0.1497278  )
       101           B   tau( 101) = (   0.5312500   0.4510550   0.1497278  )
       102           B   tau( 102) = (   0.5312500   0.5593082   0.1497278  )
       103           B   tau( 103) = (   0.5312500   0.6675614   0.1497278  )
       104           B   tau( 104) = (   0.5312500   0.7758146   0.1497278  )
       105           B   tau( 105) = (   0.6562500   0.0180422   0.1497278  )
       106           B   tau( 106) = (   0.6562500   0.1262954   0.1497278  )
       107           B   tau( 107) = (   0.6562500   0.2345486   0.1497278  )
       108           B   tau( 108) = (   0.6562500   0.3428018   0.1497278  )
       109           B   tau( 109) = (   0.6562500   0.4510550   0.1497278  )
       110           B   tau( 110) = (   0.6562500   0.5593082   0.1497278  )
       111           B   tau( 111) = (   0.6562500   0.6675614   0.1497278  )
       112           B   tau( 112) = (   0.6562500   0.7758146   0.1497278  )
       113           B   tau( 113) = (   0.7812500   0.0180422   0.1497278  )
       114           B   tau( 114) = (   0.7812500   0.1262954   0.1497278  )
       115           B   tau( 115) = (   0.7812500   0.2345486   0.1497278  )
       116           B   tau( 116) = (   0.7812500   0.3428018   0.1497278  )
       117           B   tau( 117) = (   0.7812500   0.4510550   0.1497278  )
       118           B   tau( 118) = (   0.7812500   0.5593082   0.1497278  )
       119           B   tau( 119) = (   0.7812500   0.6675614   0.1497278  )
       120           B   tau( 120) = (   0.7812500   0.7758146   0.1497278  )
       121           B   tau( 121) = (   0.9062500   0.0180422   0.1497278  )
       122           B   tau( 122) = (   0.9062500   0.1262954   0.1497278  )
       123           B   tau( 123) = (   0.9062500   0.2345486   0.1497278  )
       124           B   tau( 124) = (   0.9062500   0.3428018   0.1497278  )
       125           B   tau( 125) = (   0.9062500   0.4510550   0.1497278  )
       126           B   tau( 126) = (   0.9062500   0.5593082   0.1497278  )
       127           B   tau( 127) = (   0.9062500   0.6675614   0.1497278  )
       128           B   tau( 128) = (   0.9062500   0.7758146   0.1497278  )
       129           B   tau( 129) = (   0.0000000   0.8299412   0.1497278  )
       130           B   tau( 130) = (   0.0000000   0.0721688   0.1497278  )
       131           B   tau( 131) = (   0.0000000   0.1804220   0.1497278  )
       132           B   tau( 132) = (   0.0000000   0.2886752   0.1497278  )
       133           B   tau( 133) = (   0.0000000   0.3969284   0.1497278  )
       134           B   tau( 134) = (   0.0000000   0.5051816   0.1497278  )
       135           B   tau( 135) = (   0.0000000   0.6134348   0.1497278  )
       136           B   tau( 136) = (   0.0000000   0.7216880   0.1497278  )
       137           B   tau( 137) = (   0.1250000   0.8299412   0.1497278  )
       138           B   tau( 138) = (   0.1250000   0.0721688   0.1497278  )
       139           B   tau( 139) = (   0.1250000   0.1804220   0.1497278  )
       140           B   tau( 140) = (   0.1250000   0.2886752   0.1497278  )
       141           B   tau( 141) = (   0.1250000   0.3969284   0.1497278  )
       142           B   tau( 142) = (   0.1250000   0.5051816   0.1497278  )
       143           B   tau( 143) = (   0.1250000   0.6134348   0.1497278  )
       144           B   tau( 144) = (   0.1250000   0.7216880   0.1497278  )
       145           B   tau( 145) = (   0.2500000   0.8299412   0.1497278  )
       146           B   tau( 146) = (   0.2500000   0.0721688   0.1497278  )
       147           B   tau( 147) = (   0.2500000   0.1804220   0.1497278  )
       148           B   tau( 148) = (   0.2500000   0.2886752   0.1497278  )
       149           B   tau( 149) = (   0.2500000   0.3969284   0.1497278  )
       150           B   tau( 150) = (   0.2500000   0.5051816   0.1497278  )
       151           B   tau( 151) = (   0.2500000   0.6134348   0.1497278  )
       152           B   tau( 152) = (   0.2500000   0.7216880   0.1497278  )
       153           B   tau( 153) = (   0.3750000   0.8299412   0.1497278  )
       154           B   tau( 154) = (   0.3750000   0.0721688   0.1497278  )
       155           B   tau( 155) = (   0.3750000   0.1804220   0.1497278  )
       156           B   tau( 156) = (   0.3750000   0.2886752   0.1497278  )
       157           B   tau( 157) = (   0.3750000   0.3969284   0.1497278  )
       158           B   tau( 158) = (   0.3750000   0.5051816   0.1497278  )
       159           B   tau( 159) = (   0.3750000   0.6134348   0.1497278  )
       160           B   tau( 160) = (   0.3750000   0.7216880   0.1497278  )
       161           B   tau( 161) = (   0.5000000   0.8299412   0.1497278  )
       162           B   tau( 162) = (   0.5000000   0.0721688   0.1497278  )
       163           B   tau( 163) = (   0.5000000   0.1804220   0.1497278  )
       164           B   tau( 164) = (   0.5000000   0.2886752   0.1497278  )
       165           B   tau( 165) = (   0.5000000   0.3969284   0.1497278  )
       166           B   tau( 166) = (   0.5000000   0.5051816   0.1497278  )
       167           B   tau( 167) = (   0.5000000   0.6134348   0.1497278  )
       168           B   tau( 168) = (   0.5000000   0.7216880   0.1497278  )
       169           B   tau( 169) = (   0.6250000   0.8299412   0.1497278  )
       170           B   tau( 170) = (   0.6250000   0.0721688   0.1497278  )
       171           B   tau( 171) = (   0.6250000   0.1804220   0.1497278  )
       172           B   tau( 172) = (   0.6250000   0.2886752   0.1497278  )
       173           B   tau( 173) = (   0.6250000   0.3969284   0.1497278  )
       174           B   tau( 174) = (   0.6250000   0.5051816   0.1497278  )
       175           B   tau( 175) = (   0.6250000   0.6134348   0.1497278  )
       176           B   tau( 176) = (   0.6250000   0.7216880   0.1497278  )
       177           B   tau( 177) = (   0.7500000   0.8299412   0.1497278  )
       178           B   tau( 178) = (   0.7500000   0.0721688   0.1497278  )
       179           B   tau( 179) = (   0.7500000   0.1804220   0.1497278  )
       180           B   tau( 180) = (   0.7500000   0.2886752   0.1497278  )
       181           B   tau( 181) = (   0.7500000   0.3969284   0.1497278  )
       182           B   tau( 182) = (   0.7500000   0.5051816   0.1497278  )
       183           B   tau( 183) = (   0.7500000   0.6134348   0.1497278  )
       184           B   tau( 184) = (   0.7500000   0.7216880   0.1497278  )
       185           B   tau( 185) = (   0.8750000   0.8299412   0.1497278  )
       186           B   tau( 186) = (   0.8750000   0.0721688   0.1497278  )
       187           B   tau( 187) = (   0.8750000   0.1804220   0.1497278  )
       188           B   tau( 188) = (   0.8750000   0.2886752   0.1497278  )
       189           B   tau( 189) = (   0.8750000   0.3969284   0.1497278  )
       190           B   tau( 190) = (   0.8750000   0.5051816   0.1497278  )
       191           B   tau( 191) = (   0.8750000   0.6134348   0.1497278  )
       192           B   tau( 192) = (   0.8750000   0.7216880   0.1497278  )
       193           B   tau( 193) = (   0.0625000   0.8299412   0.1497278  )
       194           B   tau( 194) = (   0.0625000   0.0721688   0.1497278  )
       195           B   tau( 195) = (   0.0625000   0.1804220   0.1497278  )
       196           B   tau( 196) = (   0.0625000   0.2886752   0.1497278  )
       197           B   tau( 197) = (   0.0625000   0.3969284   0.1497278  )
       198           B   tau( 198) = (   0.0625000   0.5051816   0.1497278  )
       199           B   tau( 199) = (   0.0625000   0.6134348   0.1497278  )
       200           B   tau( 200) = (   0.0625000   0.7216880   0.1497278  )
       201           B   tau( 201) = (   0.1875000   0.8299412   0.1497278  )
       202           B   tau( 202) = (   0.1875000   0.0721688   0.1497278  )
       203           B   tau( 203) = (   0.1875000   0.1804220   0.1497278  )
       204           B   tau( 204) = (   0.1875000   0.2886752   0.1497278  )
       205           B   tau( 205) = (   0.1875000   0.3969284   0.1497278  )
       206           B   tau( 206) = (   0.1875000   0.5051816   0.1497278  )
       207           B   tau( 207) = (   0.1875000   0.6134348   0.1497278  )
       208           B   tau( 208) = (   0.1875000   0.7216880   0.1497278  )
       209           B   tau( 209) = (   0.3125000   0.8299412   0.1497278  )
       210           B   tau( 210) = (   0.3125000   0.0721688   0.1497278  )
       211           B   tau( 211) = (   0.3125000   0.1804220   0.1497278  )
       212           B   tau( 212) = (   0.3125000   0.2886752   0.1497278  )
       213           B   tau( 213) = (   0.3125000   0.3969284   0.1497278  )
       214           B   tau( 214) = (   0.3125000   0.5051816   0.1497278  )
       215           B   tau( 215) = (   0.3125000   0.6134348   0.1497278  )
       216           B   tau( 216) = (   0.3125000   0.7216880   0.1497278  )
       217           B   tau( 217) = (   0.4375000   0.8299412   0.1497278  )
       218           B   tau( 218) = (   0.4375000   0.0721688   0.1497278  )
       219           B   tau( 219) = (   0.4375000   0.1804220   0.1497278  )
       220           B   tau( 220) = (   0.4375000   0.2886752   0.1497278  )
       221           B   tau( 221) = (   0.4375000   0.3969284   0.1497278  )
       222           B   tau( 222) = (   0.4375000   0.5051816   0.1497278  )
       223           B   tau( 223) = (   0.4375000   0.6134348   0.1497278  )
       224           B   tau( 224) = (   0.4375000   0.7216880   0.1497278  )
       225           B   tau( 225) = (   0.5625000   0.8299412   0.1497278  )
       226           B   tau( 226) = (   0.5625000   0.0721688   0.1497278  )
       227           B   tau( 227) = (   0.5625000   0.1804220   0.1497278  )
       228           B   tau( 228) = (   0.5625000   0.2886752   0.1497278  )
       229           B   tau( 229) = (   0.5625000   0.3969284   0.1497278  )
       230           B   tau( 230) = (   0.5625000   0.5051816   0.1497278  )
       231           B   tau( 231) = (   0.5625000   0.6134348   0.1497278  )
       232           B   tau( 232) = (   0.5625000   0.7216880   0.1497278  )
       233           B   tau( 233) = (   0.6875000   0.8299412   0.1497278  )
       234           B   tau( 234) = (   0.6875000   0.0721688   0.1497278  )
       235           B   tau( 235) = (   0.6875000   0.1804220   0.1497278  )
       236           B   tau( 236) = (   0.6875000   0.2886752   0.1497278  )
       237           B   tau( 237) = (   0.6875000   0.3969284   0.1497278  )
       238           B   tau( 238) = (   0.6875000   0.5051816   0.1497278  )
       239           B   tau( 239) = (   0.6875000   0.6134348   0.1497278  )
       240           B   tau( 240) = (   0.6875000   0.7216880   0.1497278  )
       241           B   tau( 241) = (   0.8125000   0.8299412   0.1497278  )
       242           B   tau( 242) = (   0.8125000   0.0721688   0.1497278  )
       243           B   tau( 243) = (   0.8125000   0.1804220   0.1497278  )
       244           B   tau( 244) = (   0.8125000   0.2886752   0.1497278  )
       245           B   tau( 245) = (   0.8125000   0.3969284   0.1497278  )
       246           B   tau( 246) = (   0.8125000   0.5051816   0.1497278  )
       247           B   tau( 247) = (   0.8125000   0.6134348   0.1497278  )
       248           B   tau( 248) = (   0.8125000   0.7216880   0.1497278  )
       249           B   tau( 249) = (   0.9375000   0.8299412   0.1497278  )
       250           B   tau( 250) = (   0.9375000   0.0721688   0.1497278  )
       251           B   tau( 251) = (   0.9375000   0.1804220   0.1497278  )
       252           B   tau( 252) = (   0.9375000   0.2886752   0.1497278  )
       253           B   tau( 253) = (   0.9375000   0.3969284   0.1497278  )
       254           B   tau( 254) = (   0.9375000   0.5051816   0.1497278  )
       255           B   tau( 255) = (   0.9375000   0.6134348   0.1497278  )
       256           B   tau( 256) = (   0.9375000   0.7216880   0.1497278  )
       257           N   tau( 257) = (   0.9687500   0.8479833   0.1497278  )
       258           N   tau( 258) = (   0.9687500   0.0902110   0.1497278  )
       259           N   tau( 259) = (   0.9687500   0.1984642   0.1497278  )
       260           N   tau( 260) = (   0.9687500   0.3067174   0.1497278  )
       261           N   tau( 261) = (   0.9687500   0.4149705   0.1497278  )
       262           N   tau( 262) = (   0.9687500   0.5232237   0.1497278  )
       263           N   tau( 263) = (   0.9687500   0.6314769   0.1497278  )
       264           N   tau( 264) = (   0.9687500   0.7397301   0.1497278  )
       265           N   tau( 265) = (   0.0937500   0.8479833   0.1497278  )
       266           N   tau( 266) = (   0.0937500   0.0902110   0.1497278  )
       267           N   tau( 267) = (   0.0937500   0.1984642   0.1497278  )
       268           N   tau( 268) = (   0.0937500   0.3067174   0.1497278  )
       269           N   tau( 269) = (   0.0937500   0.4149705   0.1497278  )
       270           N   tau( 270) = (   0.0937500   0.5232237   0.1497278  )
       271           N   tau( 271) = (   0.0937500   0.6314769   0.1497278  )
       272           N   tau( 272) = (   0.0937500   0.7397301   0.1497278  )
       273           N   tau( 273) = (   0.2187500   0.8479833   0.1497278  )
       274           N   tau( 274) = (   0.2187500   0.0902110   0.1497278  )
       275           N   tau( 275) = (   0.2187500   0.1984642   0.1497278  )
       276           N   tau( 276) = (   0.2187500   0.3067174   0.1497278  )
       277           N   tau( 277) = (   0.2187500   0.4149705   0.1497278  )
       278           N   tau( 278) = (   0.2187500   0.5232237   0.1497278  )
       279           N   tau( 279) = (   0.2187500   0.6314769   0.1497278  )
       280           N   tau( 280) = (   0.2187500   0.7397301   0.1497278  )
       281           N   tau( 281) = (   0.3437500   0.8479833   0.1497278  )
       282           N   tau( 282) = (   0.3437500   0.0902110   0.1497278  )
       283           N   tau( 283) = (   0.3437500   0.1984642   0.1497278  )
       284           N   tau( 284) = (   0.3437500   0.3067174   0.1497278  )
       285           N   tau( 285) = (   0.3437500   0.4149705   0.1497278  )
       286           N   tau( 286) = (   0.3437500   0.5232237   0.1497278  )
       287           N   tau( 287) = (   0.3437500   0.6314769   0.1497278  )
       288           N   tau( 288) = (   0.3437500   0.7397301   0.1497278  )
       289           N   tau( 289) = (   0.4687500   0.8479833   0.1497278  )
       290           N   tau( 290) = (   0.4687500   0.0902110   0.1497278  )
       291           N   tau( 291) = (   0.4687500   0.1984642   0.1497278  )
       292           N   tau( 292) = (   0.4687500   0.3067174   0.1497278  )
       293           N   tau( 293) = (   0.4687500   0.4149705   0.1497278  )
       294           N   tau( 294) = (   0.4687500   0.5232237   0.1497278  )
       295           N   tau( 295) = (   0.4687500   0.6314769   0.1497278  )
       296           N   tau( 296) = (   0.4687500   0.7397301   0.1497278  )
       297           N   tau( 297) = (   0.5937500   0.8479833   0.1497278  )
       298           N   tau( 298) = (   0.5937500   0.0902110   0.1497278  )
       299           N   tau( 299) = (   0.5937500   0.1984642   0.1497278  )
       300           N   tau( 300) = (   0.5937500   0.3067174   0.1497278  )
       301           N   tau( 301) = (   0.5937500   0.4149705   0.1497278  )
       302           N   tau( 302) = (   0.5937500   0.5232237   0.1497278  )
       303           N   tau( 303) = (   0.5937500   0.6314769   0.1497278  )
       304           N   tau( 304) = (   0.5937500   0.7397301   0.1497278  )
       305           N   tau( 305) = (   0.7187500   0.8479833   0.1497278  )
       306           N   tau( 306) = (   0.7187500   0.0902110   0.1497278  )
       307           N   tau( 307) = (   0.7187500   0.1984642   0.1497278  )
       308           N   tau( 308) = (   0.7187500   0.3067174   0.1497278  )
       309           N   tau( 309) = (   0.7187500   0.4149705   0.1497278  )
       310           N   tau( 310) = (   0.7187500   0.5232237   0.1497278  )
       311           N   tau( 311) = (   0.7187500   0.6314769   0.1497278  )
       312           N   tau( 312) = (   0.7187500   0.7397301   0.1497278  )
       313           N   tau( 313) = (   0.8437500   0.8479833   0.1497278  )
       314           N   tau( 314) = (   0.8437500   0.0902110   0.1497278  )
       315           N   tau( 315) = (   0.8437500   0.1984642   0.1497278  )
       316           N   tau( 316) = (   0.8437500   0.3067174   0.1497278  )
       317           N   tau( 317) = (   0.8437500   0.4149705   0.1497278  )
       318           N   tau( 318) = (   0.8437500   0.5232237   0.1497278  )
       319           N   tau( 319) = (   0.8437500   0.6314769   0.1497278  )
       320           N   tau( 320) = (   0.8437500   0.7397301   0.1497278  )
       321           N   tau( 321) = (   0.0312500   0.8479833   0.1497278  )
       322           N   tau( 322) = (   0.0312500   0.0902110   0.1497278  )
       323           N   tau( 323) = (   0.0312500   0.1984642   0.1497278  )
       324           N   tau( 324) = (   0.0312500   0.3067174   0.1497278  )
       325           N   tau( 325) = (   0.0312500   0.4149705   0.1497278  )
       326           N   tau( 326) = (   0.0312500   0.5232237   0.1497278  )
       327           N   tau( 327) = (   0.0312500   0.6314769   0.1497278  )
       328           N   tau( 328) = (   0.0312500   0.7397301   0.1497278  )
       329           N   tau( 329) = (   0.1562500   0.8479833   0.1497278  )
       330           N   tau( 330) = (   0.1562500   0.0902110   0.1497278  )
       331           N   tau( 331) = (   0.1562500   0.1984642   0.1497278  )
       332           N   tau( 332) = (   0.1562500   0.3067174   0.1497278  )
       333           N   tau( 333) = (   0.1562500   0.4149705   0.1497278  )
       334           N   tau( 334) = (   0.1562500   0.5232237   0.1497278  )
       335           N   tau( 335) = (   0.1562500   0.6314769   0.1497278  )
       336           N   tau( 336) = (   0.1562500   0.7397301   0.1497278  )
       337           N   tau( 337) = (   0.2812500   0.8479833   0.1497278  )
       338           N   tau( 338) = (   0.2812500   0.0902110   0.1497278  )
       339           N   tau( 339) = (   0.2812500   0.1984642   0.1497278  )
       340           N   tau( 340) = (   0.2812500   0.3067174   0.1497278  )
       341           N   tau( 341) = (   0.2812500   0.4149705   0.1497278  )
       342           N   tau( 342) = (   0.2812500   0.5232237   0.1497278  )
       343           N   tau( 343) = (   0.2812500   0.6314769   0.1497278  )
       344           N   tau( 344) = (   0.2812500   0.7397301   0.1497278  )
       345           N   tau( 345) = (   0.4062500   0.8479833   0.1497278  )
       346           N   tau( 346) = (   0.4062500   0.0902110   0.1497278  )
       347           N   tau( 347) = (   0.4062500   0.1984642   0.1497278  )
       348           N   tau( 348) = (   0.4062500   0.3067174   0.1497278  )
       349           N   tau( 349) = (   0.4062500   0.4149705   0.1497278  )
       350           N   tau( 350) = (   0.4062500   0.5232237   0.1497278  )
       351           N   tau( 351) = (   0.4062500   0.6314769   0.1497278  )
       352           N   tau( 352) = (   0.4062500   0.7397301   0.1497278  )
       353           N   tau( 353) = (   0.5312500   0.8479833   0.1497278  )
       354           N   tau( 354) = (   0.5312500   0.0902110   0.1497278  )
       355           N   tau( 355) = (   0.5312500   0.1984642   0.1497278  )
       356           N   tau( 356) = (   0.5312500   0.3067174   0.1497278  )
       357           N   tau( 357) = (   0.5312500   0.4149705   0.1497278  )
       358           N   tau( 358) = (   0.5312500   0.5232237   0.1497278  )
       359           N   tau( 359) = (   0.5312500   0.6314769   0.1497278  )
       360           N   tau( 360) = (   0.5312500   0.7397301   0.1497278  )
       361           N   tau( 361) = (   0.6562500   0.8479833   0.1497278  )
       362           N   tau( 362) = (   0.6562500   0.0902110   0.1497278  )
       363           N   tau( 363) = (   0.6562500   0.1984642   0.1497278  )
       364           N   tau( 364) = (   0.6562500   0.3067174   0.1497278  )
       365           N   tau( 365) = (   0.6562500   0.4149705   0.1497278  )
       366           N   tau( 366) = (   0.6562500   0.5232237   0.1497278  )
       367           N   tau( 367) = (   0.6562500   0.6314769   0.1497278  )
       368           N   tau( 368) = (   0.6562500   0.7397301   0.1497278  )
       369           N   tau( 369) = (   0.7812500   0.8479833   0.1497278  )
       370           N   tau( 370) = (   0.7812500   0.0902110   0.1497278  )
       371           N   tau( 371) = (   0.7812500   0.1984642   0.1497278  )
       372           N   tau( 372) = (   0.7812500   0.3067174   0.1497278  )
       373           N   tau( 373) = (   0.7812500   0.4149705   0.1497278  )
       374           N   tau( 374) = (   0.7812500   0.5232237   0.1497278  )
       375           N   tau( 375) = (   0.7812500   0.6314769   0.1497278  )
       376           N   tau( 376) = (   0.7812500   0.7397301   0.1497278  )
       377           N   tau( 377) = (   0.9062500   0.8479833   0.1497278  )
       378           N   tau( 378) = (   0.9062500   0.0902110   0.1497278  )
       379           N   tau( 379) = (   0.9062500   0.1984642   0.1497278  )
       380           N   tau( 380) = (   0.9062500   0.3067174   0.1497278  )
       381           N   tau( 381) = (   0.9062500   0.4149705   0.1497278  )
       382           N   tau( 382) = (   0.9062500   0.5232237   0.1497278  )
       383           N   tau( 383) = (   0.9062500   0.6314769   0.1497278  )
       384           N   tau( 384) = (   0.9062500   0.7397301   0.1497278  )
       385           N   tau( 385) = (   0.0000000   0.0360844   0.1497278  )
       386           N   tau( 386) = (   0.0000000   0.1443376   0.1497278  )
       387           N   tau( 387) = (   0.0000000   0.2525908   0.1497278  )
       388           N   tau( 388) = (   0.0000000   0.3608439   0.1497278  )
       389           N   tau( 389) = (   0.0000000   0.4690971   0.1497278  )
       390           N   tau( 390) = (   0.0000000   0.5773503   0.1497278  )
       391           N   tau( 391) = (   0.0000000   0.6856035   0.1497278  )
       392           N   tau( 392) = (   0.0000000   0.7938567   0.1497278  )
       393           N   tau( 393) = (   0.1250000   0.0360844   0.1497278  )
       394           N   tau( 394) = (   0.1250000   0.1443376   0.1497278  )
       395           N   tau( 395) = (   0.1250000   0.2525908   0.1497278  )
       396           N   tau( 396) = (   0.1250000   0.3608439   0.1497278  )
       397           N   tau( 397) = (   0.1250000   0.4690971   0.1497278  )
       398           N   tau( 398) = (   0.1250000   0.5773503   0.1497278  )
       399           N   tau( 399) = (   0.1250000   0.6856035   0.1497278  )
       400           N   tau( 400) = (   0.1250000   0.7938567   0.1497278  )
       401           N   tau( 401) = (   0.2500000   0.0360844   0.1497278  )
       402           N   tau( 402) = (   0.2500000   0.1443376   0.1497278  )
       403           N   tau( 403) = (   0.2500000   0.2525908   0.1497278  )
       404           N   tau( 404) = (   0.2500000   0.3608439   0.1497278  )
       405           N   tau( 405) = (   0.2500000   0.4690971   0.1497278  )
       406           N   tau( 406) = (   0.2500000   0.5773503   0.1497278  )
       407           N   tau( 407) = (   0.2500000   0.6856035   0.1497278  )
       408           N   tau( 408) = (   0.2500000   0.7938567   0.1497278  )
       409           N   tau( 409) = (   0.3750000   0.0360844   0.1497278  )
       410           N   tau( 410) = (   0.3750000   0.1443376   0.1497278  )
       411           N   tau( 411) = (   0.3750000   0.2525908   0.1497278  )
       412           N   tau( 412) = (   0.3750000   0.3608439   0.1497278  )
       413           N   tau( 413) = (   0.3750000   0.4690971   0.1497278  )
       414           N   tau( 414) = (   0.3750000   0.5773503   0.1497278  )
       415           N   tau( 415) = (   0.3750000   0.6856035   0.1497278  )
       416           N   tau( 416) = (   0.3750000   0.7938567   0.1497278  )
       417           N   tau( 417) = (   0.5000000   0.0360844   0.1497278  )
       418           N   tau( 418) = (   0.5000000   0.1443376   0.1497278  )
       419           N   tau( 419) = (   0.5000000   0.2525908   0.1497278  )
       420           N   tau( 420) = (   0.5000000   0.3608439   0.1497278  )
       421           N   tau( 421) = (   0.5000000   0.4690971   0.1497278  )
       422           N   tau( 422) = (   0.5000000   0.5773503   0.1497278  )
       423           N   tau( 423) = (   0.5000000   0.6856035   0.1497278  )
       424           N   tau( 424) = (   0.5000000   0.7938567   0.1497278  )
       425           N   tau( 425) = (   0.6250000   0.0360844   0.1497278  )
       426           N   tau( 426) = (   0.6250000   0.1443376   0.1497278  )
       427           N   tau( 427) = (   0.6250000   0.2525908   0.1497278  )
       428           N   tau( 428) = (   0.6250000   0.3608439   0.1497278  )
       429           N   tau( 429) = (   0.6250000   0.4690971   0.1497278  )
       430           N   tau( 430) = (   0.6250000   0.5773503   0.1497278  )
       431           N   tau( 431) = (   0.6250000   0.6856035   0.1497278  )
       432           N   tau( 432) = (   0.6250000   0.7938567   0.1497278  )
       433           N   tau( 433) = (   0.7500000   0.0360844   0.1497278  )
       434           N   tau( 434) = (   0.7500000   0.1443376   0.1497278  )
       435           N   tau( 435) = (   0.7500000   0.2525908   0.1497278  )
       436           N   tau( 436) = (   0.7500000   0.3608439   0.1497278  )
       437           N   tau( 437) = (   0.7500000   0.4690971   0.1497278  )
       438           N   tau( 438) = (   0.7500000   0.5773503   0.1497278  )
       439           N   tau( 439) = (   0.7500000   0.6856035   0.1497278  )
       440           N   tau( 440) = (   0.7500000   0.7938567   0.1497278  )
       441           N   tau( 441) = (   0.8750000   0.0360844   0.1497278  )
       442           N   tau( 442) = (   0.8750000   0.1443376   0.1497278  )
       443           N   tau( 443) = (   0.8750000   0.2525908   0.1497278  )
       444           N   tau( 444) = (   0.8750000   0.3608439   0.1497278  )
       445           N   tau( 445) = (   0.8750000   0.4690971   0.1497278  )
       446           N   tau( 446) = (   0.8750000   0.5773503   0.1497278  )
       447           N   tau( 447) = (   0.8750000   0.6856035   0.1497278  )
       448           N   tau( 448) = (   0.8750000   0.7938567   0.1497278  )
       449           N   tau( 449) = (   0.0625000   0.0360844   0.1497278  )
       450           N   tau( 450) = (   0.0625000   0.1443376   0.1497278  )
       451           N   tau( 451) = (   0.0625000   0.2525908   0.1497278  )
       452           N   tau( 452) = (   0.0625000   0.3608439   0.1497278  )
       453           N   tau( 453) = (   0.0625000   0.4690971   0.1497278  )
       454           N   tau( 454) = (   0.0625000   0.5773503   0.1497278  )
       455           N   tau( 455) = (   0.0625000   0.6856035   0.1497278  )
       456           N   tau( 456) = (   0.0625000   0.7938567   0.1497278  )
       457           N   tau( 457) = (   0.1875000   0.0360844   0.1497278  )
       458           N   tau( 458) = (   0.1875000   0.1443376   0.1497278  )
       459           N   tau( 459) = (   0.1875000   0.2525908   0.1497278  )
       460           N   tau( 460) = (   0.1875000   0.3608439   0.1497278  )
       461           N   tau( 461) = (   0.1875000   0.4690971   0.1497278  )
       462           N   tau( 462) = (   0.1875000   0.5773503   0.1497278  )
       463           N   tau( 463) = (   0.1875000   0.6856035   0.1497278  )
       464           N   tau( 464) = (   0.1875000   0.7938567   0.1497278  )
       465           N   tau( 465) = (   0.3125000   0.0360844   0.1497278  )
       466           N   tau( 466) = (   0.3125000   0.1443376   0.1497278  )
       467           N   tau( 467) = (   0.3125000   0.2525908   0.1497278  )
       468           N   tau( 468) = (   0.3125000   0.3608439   0.1497278  )
       469           N   tau( 469) = (   0.3125000   0.4690971   0.1497278  )
       470           N   tau( 470) = (   0.3125000   0.5773503   0.1497278  )
       471           N   tau( 471) = (   0.3125000   0.6856035   0.1497278  )
       472           N   tau( 472) = (   0.3125000   0.7938567   0.1497278  )
       473           N   tau( 473) = (   0.4375000   0.0360844   0.1497278  )
       474           N   tau( 474) = (   0.4375000   0.1443376   0.1497278  )
       475           N   tau( 475) = (   0.4375000   0.2525908   0.1497278  )
       476           N   tau( 476) = (   0.4375000   0.3608439   0.1497278  )
       477           N   tau( 477) = (   0.4375000   0.4690971   0.1497278  )
       478           N   tau( 478) = (   0.4375000   0.5773503   0.1497278  )
       479           N   tau( 479) = (   0.4375000   0.6856035   0.1497278  )
       480           N   tau( 480) = (   0.4375000   0.7938567   0.1497278  )
       481           N   tau( 481) = (   0.5625000   0.0360844   0.1497278  )
       482           N   tau( 482) = (   0.5625000   0.1443376   0.1497278  )
       483           N   tau( 483) = (   0.5625000   0.2525908   0.1497278  )
       484           N   tau( 484) = (   0.5625000   0.3608439   0.1497278  )
       485           N   tau( 485) = (   0.5625000   0.4690971   0.1497278  )
       486           N   tau( 486) = (   0.5625000   0.5773503   0.1497278  )
       487           N   tau( 487) = (   0.5625000   0.6856035   0.1497278  )
       488           N   tau( 488) = (   0.5625000   0.7938567   0.1497278  )
       489           N   tau( 489) = (   0.6875000   0.0360844   0.1497278  )
       490           N   tau( 490) = (   0.6875000   0.1443376   0.1497278  )
       491           N   tau( 491) = (   0.6875000   0.2525908   0.1497278  )
       492           N   tau( 492) = (   0.6875000   0.3608439   0.1497278  )
       493           N   tau( 493) = (   0.6875000   0.4690971   0.1497278  )
       494           N   tau( 494) = (   0.6875000   0.5773503   0.1497278  )
       495           N   tau( 495) = (   0.6875000   0.6856035   0.1497278  )
       496           N   tau( 496) = (   0.6875000   0.7938567   0.1497278  )
       497           N   tau( 497) = (   0.8125000   0.0360844   0.1497278  )
       498           N   tau( 498) = (   0.8125000   0.1443376   0.1497278  )
       499           N   tau( 499) = (   0.8125000   0.2525908   0.1497278  )
       500           N   tau( 500) = (   0.8125000   0.3608439   0.1497278  )
       501           N   tau( 501) = (   0.8125000   0.4690971   0.1497278  )
       502           N   tau( 502) = (   0.8125000   0.5773503   0.1497278  )
       503           N   tau( 503) = (   0.8125000   0.6856035   0.1497278  )
       504           N   tau( 504) = (   0.8125000   0.7938567   0.1497278  )
       505           N   tau( 505) = (   0.9375000   0.0360844   0.1497278  )
       506           N   tau( 506) = (   0.9375000   0.1443376   0.1497278  )
       507           N   tau( 507) = (   0.9375000   0.2525908   0.1497278  )
       508           N   tau( 508) = (   0.9375000   0.3608439   0.1497278  )
       509           N   tau( 509) = (   0.9375000   0.4690971   0.1497278  )
       510           N   tau( 510) = (   0.9375000   0.5773503   0.1497278  )
       511           N   tau( 511) = (   0.9375000   0.6856035   0.1497278  )
       512           N   tau( 512) = (   0.9375000   0.7938567   0.1497278  )
       513           O   tau( 513) = (   0.3750000   0.3247596   0.2243596  )
       514           H   tau( 514) = (   0.3750000   0.3436490   0.2097394  )
       515           H   tau( 515) = (   0.3750000   0.3058702   0.2097394  )

     number of k points=     4
                       cart. coord. in units 2pi/alat
        k(    1) = (   0.0000000   0.0000000   0.0000000), wk =   0.2222222
        k(    2) = (   0.0000000   0.3849001   0.0000000), wk =   0.4444444
        k(    3) = (   0.3333333   0.0000000   0.0000000), wk =   0.4444444
        k(    4) = (   0.3333333   0.3849001   0.0000000), wk =   0.8888889

     Dense  grid: 14036177 G-vectors     FFT dimensions: ( 360, 300, 270)

     Estimated max dynamical RAM per process >       3.34 GB

     Estimated total dynamical RAM >     427.44 GB

     Check: negative core charge=   -0.000007

     Initial potential from superposition of free atoms

     starting charge    2055.9258, renormalised to    2056.0000

     negative rho (up, down):  2.271E-01 0.000E+00
     Starting wfcs are 2054 randomized atomic wfcs
     Checking if some PAW data can be deallocated... 

     total cpu time spent up to now is      831.7 secs

     Self-consistent Calculation

     iteration #  1     ecut=    51.45 Ry     beta= 0.70
     Davidson diagonalization with overlap
     ethr =  1.00E-02,  avg # of iterations =  3.0

     negative rho (up, down):  5.922E-01 0.000E+00

     total cpu time spent up to now is     2609.4 secs

     total energy              =  -10210.32012655 Ry
     estimated scf accuracy    <     109.01152804 Ry

     iteration #  2     ecut=    51.45 Ry     beta= 0.70
     Davidson diagonalization with overlap
     ethr =  5.30E-03,  avg # of iterations =  3.5

     negative rho (up, down):  6.466E-01 0.000E+00

     total cpu time spent up to now is     4473.8 secs

     total energy              =  -10242.17877740 Ry
     estimated scf accuracy    <      47.73647682 Ry

     iteration #  3     ecut=    51.45 Ry     beta= 0.70
     Davidson diagonalization with overlap
     ethr =  2.32E-03,  avg # of iterations =  2.5

     negative rho (up, down):  7.787E-01 0.000E+00

     total cpu time spent up to now is     6042.8 secs

     total energy              =  -10248.41810949 Ry
     estimated scf accuracy    <       1.19469254 Ry

     iteration #  4     ecut=    51.45 Ry     beta= 0.70
     Davidson diagonalization with overlap
     c_bands:  5 eigenvalues not converged
     c_bands:  4 eigenvalues not converged
     c_bands:  3 eigenvalues not converged
     ethr =  5.81E-05,  avg # of iterations = 20.8

     negative rho (up, down):  7.858E-01 0.000E+00

     total cpu time spent up to now is     8799.4 secs

     total energy              =  -10249.31315179 Ry
     estimated scf accuracy    <       1.53674767 Ry

     iteration #  5     ecut=    51.45 Ry     beta= 0.70
     Davidson diagonalization with overlap
     c_bands:  1 eigenvalues not converged
     c_bands:  2 eigenvalues not converged
     ethr =  5.81E-05,  avg # of iterations = 17.5

     negative rho (up, down):  7.927E-01 0.000E+00

     total cpu time spent up to now is    10249.2 secs

     total energy              =  -10249.26558787 Ry
     estimated scf accuracy    <       0.37146840 Ry

     iteration #  6     ecut=    51.45 Ry     beta= 0.70
     Davidson diagonalization with overlap
     c_bands:  3 eigenvalues not converged
     ethr =  1.81E-05,  avg # of iterations = 17.0

     negative rho (up, down):  8.096E-01 0.000E+00

     total cpu time spent up to now is    12523.3 secs

     total energy              =  -10249.32389011 Ry
     estimated scf accuracy    <       0.01446795 Ry

     iteration #  7     ecut=    51.45 Ry     beta= 0.70
     Davidson diagonalization with overlap
     c_bands:  1 eigenvalues not converged
     c_bands:  3 eigenvalues not converged
     c_bands:  1 eigenvalues not converged
     c_bands:  4 eigenvalues not converged
     ethr =  7.04E-07,  avg # of iterations = 35.0

     negative rho (up, down):  8.096E-01 0.000E+00

     total cpu time spent up to now is    15594.0 secs

     total energy              =  -10249.32679994 Ry
     estimated scf accuracy    <       0.00051891 Ry

     iteration #  8     ecut=    51.45 Ry     beta= 0.70
     Davidson diagonalization with overlap
     ethr =  2.52E-08,  avg # of iterations =  9.8

     negative rho (up, down):  8.097E-01 0.000E+00

     total cpu time spent up to now is    17284.3 secs

     total energy              =  -10249.32689617 Ry
     estimated scf accuracy    <       0.00008757 Ry

     iteration #  9     ecut=    51.45 Ry     beta= 0.70
     Davidson diagonalization with overlap
     ethr =  4.26E-09,  avg # of iterations =  6.0

     negative rho (up, down):  8.097E-01 0.000E+00

     total cpu time spent up to now is    19184.2 secs

     total energy              =  -10249.32692578 Ry
     estimated scf accuracy    <       0.00001142 Ry

     iteration # 10     ecut=    51.45 Ry     beta= 0.70
     Davidson diagonalization with overlap
     ethr =  5.55E-10,  avg # of iterations =  6.0

     negative rho (up, down):  8.097E-01 0.000E+00

     total cpu time spent up to now is    20502.1 secs

     total energy              =  -10249.32692380 Ry
     estimated scf accuracy    <       0.00000576 Ry

     iteration # 11     ecut=    51.45 Ry     beta= 0.70
     Davidson diagonalization with overlap
     ethr =  2.80E-10,  avg # of iterations =  3.2

     negative rho (up, down):  8.097E-01 0.000E+00

     total cpu time spent up to now is    22164.5 secs

     End of self-consistent calculation

          k = 0.0000 0.0000 0.0000 (****** PWs)   bands (ev):

   -23.9782 -22.3441 -22.2886 -22.2711 -22.2564 -22.2562 -22.2065 -22.1998
   -22.1966 -22.1950 -22.1101 -22.1060 -22.0459 -22.0399 -22.0327 -22.0298
   -22.0290 -22.0279 -21.9798 -21.9793 -21.9730 -21.9725 -21.8353 -21.8317
   -21.8152 -21.8145 -21.8115 -21.8110 -21.7607 -21.7588 -21.7558 -21.7554
   -21.6728 -21.6721 -21.6179 -21.6173 -21.6100 -21.6100 -21.5457 -21.5442
   -21.5433 -21.5430 -21.4589 -21.4561 -21.4556 -21.4541 -21.4527 -21.4523
   -21.3875 -21.3859 -21.3826 -21.3820 -21.2017 -21.1996 -21.1957 -21.1954
   -21.1815 -21.1811 -21.1777 -21.1770 -21.1769 -21.1767 -21.1297 -21.1292
   -21.1226 -21.1225 -20.9931 -20.9922 -20.9768 -20.9759 -20.9728 -20.9727
   -20.9283 -20.9274 -20.9234 -20.9233 -20.8476 -20.8464 -20.8457 -20.8453
   -20.7370 -20.7352 -20.7352 -20.7345 -20.7288 -20.7285 -20.7271 -20.7271
   -20.6002 -20.5993 -20.5495 -20.5488 -20.5420 -20.5420 -20.4636 -20.4628
   -20.4334 -20.4312 -20.4303 -20.4296 -20.4096 -20.4083 -20.4060 -20.4055
   -20.4051 -20.4048 -20.4014 -20.4014 -20.4004 -20.4002 -20.3996 -20.3995
   -20.2401 -20.2394 -20.2386 -20.2384 -20.1802 -20.1792 -20.1776 -20.1774
   -20.0335 -20.0319 -20.0302 -20.0298 -19.9873 -19.9843 -19.9809 -19.9808
   -19.9789 -19.9788 -19.9391 -19.9375 -19.9318 -19.9309 -19.9039 -19.9031
   -19.8911 -19.8901 -19.8895 -19.8891 -19.8598 -19.8593 -19.8558 -19.8557
   -19.8097 -19.8078 -19.8056 -19.8049 -19.7400 -19.7393 -19.7380 -19.7379
   -19.6599 -19.6587 -19.6542 -19.6541 -19.6117 -19.6090 -19.6080 -19.6076
   -19.5791 -19.5783 -19.5768 -19.5766 -19.5631 -19.5628 -19.5595 -19.5594
   -19.4764 -19.4614 -19.4276 -19.4203 -19.4186 -19.4167 -19.3805 -19.3781
   -19.3712 -19.3693 -19.3675 -19.3669 -19.3657 -19.3649 -19.3563 -19.3562
   -19.3491 -19.3488 -19.3484 -19.3483 -19.3161 -19.3135 -19.3131 -19.3106
   -19.3100 -19.3080 -19.3057 -19.3048 -19.3045 -19.3045 -19.3040 -19.3039
   -19.2673 -19.2669 -19.2613 -19.2613 -19.2484 -19.2417 -19.2416 -19.2090
   -19.2040 -19.1770 -19.1766 -19.1747 -19.1745 -19.1474 -19.1442 -19.1390
   -19.1383 -19.1338 -19.1337 -19.1332 -19.1331 -19.1011 -19.0994 -19.0450
   -19.0444 -19.0428 -19.0426 -18.9975 -18.9969 -18.9953 -18.9951 -18.9725
   -18.9715 -18.9629 -18.9629 -18.9564 -18.9545 -18.9460 -18.9454 -18.9412
   -18.9410 -18.9395 -18.9395 -18.8109 -18.8097 -18.7996 -18.7995 -18.7808
   -18.7804 -18.7780 -18.7777 -18.7772 -18.7772 -18.7054 -18.7052 -18.6698
   -18.6696 -13.5602 -13.5565 -13.5563 -13.5108 -13.5027 -13.4451 -13.4450
   -13.4316 -13.4315 -13.4148 -13.4148 -13.4143 -13.4142 -13.3762 -13.3710
   -13.3484 -13.3483 -13.3410 -13.3410 -13.2552 -13.2552 -13.2537 -13.2534
   -13.2222 -13.2103 -13.1759 -13.1686 -13.1669 -13.1647 -13.1524 -13.1520
   -13.0868 -13.0863 -13.0831 -13.0830 -13.0578 -13.0574 -13.0567 -13.0539
   -13.0538 -13.0526 -13.0515 -13.0505 -13.0505 -13.0501 -13.0496 -13.0494
   -13.0198 -13.0198 -13.0174 -13.0174 -12.8910 -12.8898 -12.8848 -12.8825
   -12.8778 -12.8771 -12.8733 -12.8728 -12.8625 -12.8623 -12.8604 -12.8604
   -12.8592 -12.8591 -12.7854 -12.7854 -12.7823 -12.7823 -12.7011 -12.6985
   -12.6928 -12.6924 -12.6750 -12.6748 -12.6729 -12.6729 -12.6516 -12.6516
   -12.6509 -12.6509 -12.6339 -12.6338 -12.6050 -12.6049 -12.5981 -12.5979
   -12.5626 -12.5626 -12.5590 -12.5589 -12.5141 -12.5136 -12.5130 -12.5125
   -12.4180 -12.4178 -12.4167 -12.4165 -12.3295 -12.3268 -12.3199 -12.3198
   -12.3180 -12.3180 -12.2935 -12.2931 -12.2893 -12.2886 -12.2668 -12.2662
   -12.2661 -12.2654 -12.2652 -12.2650 -12.2270 -12.2264 -12.2246 -12.2239
   -12.1666 -12.1663 -12.1659 -12.1653 -11.9952 -11.9950 -11.9934 -11.9934
   -11.9517 -11.9511 -11.9463 -11.9462 -11.7963 -11.7802 -11.7658 -11.7294
   -11.7293 -11.7279 -11.7278 -11.7258 -11.7253 -11.7251 -11.7236 -11.6756
   -11.6744 -11.6396 -11.6390 -11.4291 -11.4287 -11.4279 -11.4279 -11.4152
   -11.4145 -11.4116 -11.4116 -11.2705 -11.2696 -11.2683 -11.2680 -11.2285
   -11.2279 -11.2241 -11.2237 -11.2208 -11.2206 -11.1702 -11.1700 -11.1380
   -11.1364 -11.1256 -11.1245 -11.1242 -11.1231 -11.1209 -11.1204 -11.1199
   -11.1191 -11.1189 -11.1187 -11.1101 -11.1101 -11.0989 -11.0989 -11.0962
   -11.0962 -11.0553 -11.0539 -11.0502 -11.0497 -10.8091 -10.8088 -10.7796
   -10.7791 -10.7787 -10.7784 -10.7654 -10.7650 -10.7611 -10.7611 -10.6354
   -10.6353 -10.6349 -10.6345 -10.5396 -10.5395 -10.5392 -10.5384 -10.5375
   -10.5374 -10.4538 -10.4536 -10.4531 -10.4530 -10.4231 -10.4212 -10.3952
   -10.3951 -10.3946 -10.3943 -10.3623 -10.3617 -10.3615 -10.3611 -10.3190
   -10.3168 -10.3131 -10.3128 -10.1853 -10.1849 -10.1809 -10.1808 -10.1588
   -10.1585 -10.1539 -10.1539 -10.0044 -10.0042 -10.0032 -10.0030  -9.9952
    -9.9939  -9.9935  -9.9931  -9.9356  -9.9343  -9.9305  -9.9304  -9.9261
    -9.8555  -9.8444  -9.8439  -9.8348  -9.8345  -9.8273  -9.8094  -9.8053
    -9.7942  -9.7934  -9.7802  -9.7802  -9.7554  -9.7546  -9.7540  -9.7538
    -9.7523  -9.7514  -9.7512  -9.7503  -9.7492  -9.7490  -9.7446  -9.7304
    -9.7268  -9.7255  -9.7205  -9.7204  -9.7197  -9.7197  -9.6271  -9.6222
    -9.6141  -9.6037  -9.5467  -9.5459  -9.5426  -9.5423  -9.5405  -9.5359
    -9.5348  -9.5345  -9.5340  -9.5337  -9.5336  -9.5327  -9.5315  -9.5298
    -9.5295  -9.5289  -9.5287  -9.5182  -9.5179  -9.5179  -9.5178  -9.5107
    -9.5047  -9.5018  -9.5012  -9.5001  -9.4443  -9.4438  -9.4433  -9.4431
    -9.4380  -9.4328  -9.4256  -9.4255  -9.2845  -9.2843  -9.2801  -9.2796
    -9.2793  -9.2780  -9.2755  -9.2754  -9.2463  -9.2325  -9.2148  -9.2095
    -9.2059  -9.2059  -9.1426  -9.1348  -9.1314  -9.1309  -9.1237  -9.1225
    -9.1187  -9.1185  -9.0877  -9.0873  -9.0367  -9.0362  -9.0336  -9.0334
    -9.0331  -9.0207  -9.0198  -9.0149  -9.0066  -9.0064  -9.0005  -9.0005
    -8.9516  -8.9492  -8.9433  -8.9427  -8.9385  -8.9372  -8.9342  -8.9342
    -8.8844  -8.8832  -8.8772  -8.8765  -8.8562  -8.8556  -8.8554  -8.8549
    -8.8538  -8.8527  -8.8525  -8.8512  -8.8512  -8.8487  -8.8486  -8.8482
    -8.8482  -8.8434  -8.8434  -8.8430  -8.8423  -8.8414  -8.8384  -8.8384
    -8.8165  -8.8161  -8.8150  -8.8146  -8.8144  -8.8126  -8.8124  -8.8118
    -8.8053  -8.8052  -8.7988  -8.7921  -8.7921  -8.7429  -8.7429  -8.7419
    -8.7418  -8.7375  -8.7307  -8.7306  -8.7286  -8.7285  -8.7235  -8.7235
    -8.7226  -8.7208  -8.7194  -8.7191  -8.7186  -8.7030  -8.7028  -8.6972
    -8.6971  -8.6906  -8.6905  -8.6905  -8.6902  -8.6364  -8.6284  -8.6240
    -8.6236  -8.5274  -8.5269  -8.5263  -8.5261  -8.4846  -8.4835  -8.4813
    -8.4809  -8.4807  -8.4803  -8.4795  -8.4792  -8.4726  -8.4725  -8.3998
    -8.3921  -8.3917  -8.3719  -8.3675  -8.3666  -8.3507  -8.3470  -8.3442
    -8.3439  -8.3429  -8.3428  -8.3299  -8.3294  -8.3226  -8.3219  -8.3116
    -8.3116  -8.2826  -8.2800  -8.2795  -8.2782  -8.2781  -8.2775  -8.2693
    -8.2692  -8.2658  -8.2654  -8.2647  -8.2645  -8.1742  -8.1735  -8.1700
    -8.1700  -8.1110  -8.1030  -8.1027  -8.0971  -8.0945  -8.0918  -8.0918
    -8.0889  -8.0780  -8.0772  -8.0770  -8.0764  -8.0746  -8.0675  -8.0629
    -8.0627  -8.0433  -8.0429  -8.0428  -8.0428  -8.0144  -8.0005  -7.9951
    -7.9948  -7.9122  -7.8882  -7.8872  -7.8860  -7.8825  -7.8824  -7.8822
    -7.8818  -7.8762  -7.8758  -7.8755  -7.8751  -7.8176  -7.8169  -7.8080
    -7.8078  -7.8035  -7.7926  -7.7895  -7.7347  -7.7342  -7.7322  -7.7273
    -7.7259  -7.7239  -7.7238  -7.6623  -7.6182  -7.6170  -7.6164  -7.6157
    -7.6142  -7.6136  -7.6018  -7.6009  -7.6001  -7.5999  -7.5999  -7.5999
    -7.5421  -7.5315  -7.5306  -7.5301  -7.5282  -7.5278  -7.4752  -7.4662
    -7.4661  -7.4652  -7.3561  -7.3498  -7.3429  -7.3412  -7.3348  -7.3336
    -7.3093  -7.3092  -7.3058  -7.2985  -7.2798  -7.2771  -7.2757  -7.2740
    -7.2734  -7.2702  -7.2700  -7.2690  -7.2689  -7.2684  -7.2683  -7.2579
    -7.2538  -7.2532  -7.2527  -7.2526  -7.2431  -7.2428  -7.2347  -7.2347
    -7.1860  -7.1845  -7.1831  -7.1809  -7.1802  -7.1784  -7.0650  -7.0647
    -7.0405  -7.0383  -7.0372  -7.0346  -6.9803  -6.9761  -6.9716  -6.9713
    -6.9585  -6.9554  -6.9548  -6.9535  -6.9503  -6.9496  -6.9494  -6.9488
    -6.9486  -6.9483  -6.8861  -6.8827  -6.7445  -6.7445  -6.7406  -6.7386
    -6.6825  -6.6804  -6.6741  -6.6737  -6.6729  -6.6695  -6.6679  -6.6668
    -6.6651  -6.6635  -6.6089  -6.6052  -6.5991  -6.5989  -6.5643  -6.5610
    -6.5517  -6.5457  -6.5451  -6.5444  -6.5432  -6.5426  -6.5399  -6.5385
    -6.5376  -6.5350  -6.5329  -6.5317  -6.5312  -6.5302  -6.5014  -6.4981
    -6.4944  -6.4942  -6.4390  -6.4360  -6.4243  -6.4206  -6.4187  -6.4185
    -6.3231  -6.3188  -6.3171  -6.3170  -6.3169  -6.3110  -6.2624  -6.2524
    -6.2512  -6.2507  -6.2327  -6.2276  -6.2001  -6.1972  -6.1912  -6.1904
    -6.1412  -6.1375  -6.1374  -6.1336  -6.1332  -6.1324  -6.1101  -6.1011
    -6.0901  -6.0874  -6.0846  -6.0843  -6.0569  -6.0526  -6.0483  -6.0481
    -5.9898  -5.9893  -5.9101  -5.8971  -5.8593  -5.8490  -5.8394  -5.8361
    -5.8347  -5.7848  -5.7779  -5.7763  -5.7755  -5.7754  -5.7662  -5.7538
    -5.7473  -5.7463  -5.7442  -5.7438  -5.7393  -5.7391  -5.7160  -5.6841
    -5.6778  -5.6754  -5.6752  -5.6728  -5.6712  -5.6706  -5.6699  -5.6698
    -5.6694  -5.6694  -5.6544  -5.5998  -5.5932  -5.5929  -5.5903  -5.5649
    -5.5596  -5.5579  -5.5098  -5.5024  -5.4637  -5.4598  -5.4597  -5.4594
    -5.4298  -5.4244  -5.4216  -5.4198  -5.4165  -5.4160  -5.4149  -5.4147
    -5.3490  -5.3460  -5.2618  -5.2594  -5.2590  -5.2581  -5.1943  -5.1923
    -5.1918  -5.1911  -5.1556  -5.1522  -5.1461  -5.1459  -5.1315  -5.1284
    -5.1221  -5.1216  -5.1142  -5.1138  -5.1084  -5.1078  -4.8937  -4.8907
    -4.8828  -4.8825  -4.8522  -4.8510  -4.8461  -4.8460  -4.8459  -4.8457
    -4.7257  -4.7250  -4.6679  -4.6674  -0.1631  -0.0786  -0.0545  -0.0332
    -0.0251   0.0197   0.0425   0.0558   0.0694   0.0867   0.0924   0.1139
     0.1267   0.1349   0.1379   0.1384   0.1401   0.1461   0.1514   0.1526
     0.1733

          k = 0.0000 0.3849 0.0000 (****** PWs)   bands (ev):

   -23.9782 -22.3391 -22.3013 -22.2722 -22.2630 -22.2429 -22.2371 -22.2013
   -22.1467 -22.1379 -22.1284 -22.1016 -22.0983 -22.0774 -22.0725 -22.0654
   -22.0621 -21.9787 -21.9739 -21.9295 -21.9050 -21.9006 -21.8743 -21.8669
   -21.8264 -21.8239 -21.8087 -21.7970 -21.7966 -21.7530 -21.7458 -21.7143
   -21.7092 -21.6990 -21.6988 -21.6326 -21.6304 -21.5895 -21.5864 -21.5226
   -21.4688 -21.4606 -21.4514 -21.4493 -21.4407 -21.4400 -21.4225 -21.4216
   -21.3597 -21.3318 -21.3303 -21.3269 -21.3248 -21.3084 -21.3050 -21.3036
   -21.2972 -21.2624 -21.2614 -21.1483 -21.1447 -21.0840 -21.0818 -21.0515
   -21.0494 -20.9966 -20.9872 -20.9861 -20.9718 -20.9702 -20.9597 -20.9595
   -20.9442 -20.9372 -20.8964 -20.8942 -20.8760 -20.8755 -20.8123 -20.8117
   -20.8015 -20.7941 -20.7905 -20.7500 -20.7429 -20.7107 -20.7092 -20.6449
   -20.6443 -20.6038 -20.5998 -20.5641 -20.5626 -20.5533 -20.5512 -20.5413
   -20.5410 -20.4582 -20.4575 -20.4337 -20.4335 -20.3940 -20.3694 -20.3672
   -20.3609 -20.3605 -20.3443 -20.3372 -20.3066 -20.3058 -20.3049 -20.3046
   -20.2395 -20.2379 -20.2047 -20.2015 -20.1880 -20.1724 -20.1719 -20.1622
   -20.1618 -20.1390 -20.1321 -20.0763 -20.0756 -20.0665 -20.0653 -20.0046
   -20.0012 -19.9875 -19.9853 -19.9011 -19.9001 -19.8876 -19.8865 -19.8792
   -19.8790 -19.8739 -19.8738 -19.8262 -19.8258 -19.7972 -19.7941 -19.7930
   -19.7867 -19.7864 -19.7696 -19.7692 -19.7475 -19.7405 -19.7307 -19.7302
   -19.7130 -19.7117 -19.6848 -19.6844 -19.6263 -19.6252 -19.6239 -19.6195
   -19.6170 -19.5734 -19.5665 -19.5419 -19.5411 -19.5374 -19.5362 -19.4958
   -19.4954 -19.4552 -19.4508 -19.4374 -19.4347 -19.4326 -19.4316 -19.4235
   -19.4234 -19.4196 -19.4195 -19.3747 -19.3733 -19.3560 -19.3558 -19.3529
   -19.3381 -19.3377 -19.3246 -19.3242 -19.3108 -19.3028 -19.3022 -19.3013
   -19.2918 -19.2915 -19.2813 -19.2788 -19.2761 -19.2758 -19.2736 -19.2708
   -19.2692 -19.2565 -19.2563 -19.2427 -19.2427 -19.2343 -19.2299 -19.2299
   -19.2293 -19.2122 -19.2105 -19.1965 -19.1963 -19.1960 -19.1946 -19.1272
   -19.1249 -19.1241 -19.1238 -19.0981 -19.0974 -19.0758 -19.0757 -19.0681
   -19.0669 -19.0366 -19.0351 -19.0155 -19.0150 -19.0039 -19.0038 -18.9869
   -18.9865 -18.9693 -18.9682 -18.9559 -18.9557 -18.9411 -18.9411 -18.9103
   -18.9101 -18.8950 -18.8946 -18.8590 -18.8578 -18.8381 -18.8380 -18.8012
   -18.8002 -18.7460 -18.7455 -18.7254 -18.7254 -18.7128 -18.7127 -18.6839
   -18.6837 -13.5428 -13.5428 -13.5219 -13.4950 -13.4950 -13.4728 -13.4638
   -13.4315 -13.4315 -13.4091 -13.4090 -13.4010 -13.3937 -13.3937 -13.3577
   -13.3499 -13.3405 -13.3404 -13.3353 -13.3334 -13.3204 -13.3203 -13.2611
   -13.2611 -13.2290 -13.2254 -13.1982 -13.1982 -13.1522 -13.1521 -13.1452
   -13.1452 -13.1229 -13.1204 -13.1016 -13.1015 -13.0914 -13.0914 -13.0336
   -13.0332 -13.0271 -13.0252 -13.0173 -13.0172 -12.9884 -12.9883 -12.9679
   -12.9586 -12.9585 -12.9270 -12.9212 -12.8995 -12.8994 -12.8945 -12.8944
   -12.8658 -12.8658 -12.8480 -12.8456 -12.8229 -12.8203 -12.7870 -12.7855
   -12.7668 -12.7667 -12.7429 -12.7429 -12.7285 -12.7284 -12.6975 -12.6970
   -12.6946 -12.6941 -12.6856 -12.6850 -12.6756 -12.6744 -12.6707 -12.6706
   -12.6681 -12.6479 -12.6478 -12.6453 -12.6453 -12.6427 -12.6427 -12.6309
   -12.6259 -12.6132 -12.6130 -12.5972 -12.5971 -12.5667 -12.5657 -12.5451
   -12.5421 -12.5187 -12.5187 -12.4917 -12.4917 -12.4410 -12.4392 -12.4200
   -12.4196 -12.4133 -12.4132 -12.3229 -12.3229 -12.3052 -12.3050 -12.2949
   -12.2948 -12.1535 -12.1535 -12.1319 -12.1317 -12.1306 -12.1305 -12.0958
   -12.0947 -11.9540 -11.9328 -11.9325 -11.9209 -11.9182 -11.9161 -11.9152
   -11.8862 -11.8836 -11.8691 -11.8689 -11.8200 -11.8190 -11.7966 -11.7916
   -11.7777 -11.7331 -11.7284 -11.6801 -11.6793 -11.6298 -11.6296 -11.6140
   -11.6129 -11.6012 -11.6007 -11.5801 -11.5762 -11.5468 -11.5336 -11.5335
   -11.5211 -11.5201 -11.5168 -11.5165 -11.5033 -11.5030 -11.4481 -11.4479
   -11.3314 -11.3313 -11.3123 -11.3120 -11.2176 -11.2174 -11.2078 -11.2063
   -11.1805 -11.1804 -11.1478 -11.1468 -11.1167 -11.1165 -11.0000 -10.9998
   -10.9705 -10.9702 -10.9648 -10.9646 -10.9622 -10.9612 -10.9605 -10.9605
   -10.9192 -10.9188 -10.9178 -10.9175 -10.9045 -10.9045 -10.8489 -10.8487
   -10.7469 -10.7463 -10.7319 -10.7250 -10.6849 -10.6847 -10.6830 -10.6829
   -10.6824 -10.6674 -10.6579 -10.6573 -10.6565 -10.5602 -10.5600 -10.5237
   -10.5234 -10.4913 -10.4911 -10.4126 -10.4104 -10.3739 -10.3728 -10.3644
   -10.3641 -10.3493 -10.3492 -10.3380 -10.3378 -10.3313 -10.3263 -10.2977
   -10.2973 -10.2650 -10.2649 -10.2402 -10.2333 -10.2321 -10.2259 -10.2208
   -10.2206 -10.2072 -10.1272 -10.1258 -10.1021 -10.1019 -10.0735 -10.0730
   -10.0410 -10.0408 -10.0220 -10.0220  -9.9956  -9.9954  -9.9867  -9.9865
    -9.9732  -9.9730  -9.9200  -9.8840  -9.8837  -9.8694  -9.8369  -9.8358
    -9.8316  -9.8163  -9.8139  -9.8136  -9.7953  -9.7950  -9.7923  -9.7919
    -9.7909  -9.7820  -9.7533  -9.7531  -9.7469  -9.7468  -9.7332  -9.6858
    -9.6856  -9.6638  -9.6535  -9.6522  -9.6480  -9.6342  -9.6186  -9.6131
    -9.6011  -9.5929  -9.5841  -9.5818  -9.5679  -9.5589  -9.5510  -9.5469
    -9.5467  -9.5432  -9.5281  -9.5276  -9.5040  -9.5038  -9.4707  -9.4671
    -9.4541  -9.4535  -9.4356  -9.4258  -9.4205  -9.4203  -9.3841  -9.3806
    -9.3666  -9.3655  -9.3652  -9.3482  -9.3358  -9.3357  -9.3327  -9.3326
    -9.3266  -9.3142  -9.3137  -9.2936  -9.2912  -9.2824  -9.2770  -9.2769
    -9.2512  -9.2509  -9.2308  -9.2218  -9.2119  -9.2109  -9.2023  -9.1936
    -9.1933  -9.1886  -9.1868  -9.1727  -9.1691  -9.1574  -9.1574  -9.1551
    -9.1518  -9.1510  -9.1510  -9.1317  -9.1316  -9.1292  -9.1184  -9.0885
    -9.0883  -9.0782  -9.0663  -9.0557  -9.0557  -9.0554  -9.0550  -9.0432
    -9.0431  -9.0276  -9.0141  -9.0115  -9.0105  -8.9921  -8.9920  -8.9894
    -8.9828  -8.9691  -8.9688  -8.9673  -8.9617  -8.9609  -8.9603  -8.9579
    -8.9578  -8.9311  -8.9309  -8.9094  -8.9077  -8.9015  -8.9009  -8.9008
    -8.8978  -8.8884  -8.8884  -8.8849  -8.8748  -8.8524  -8.8517  -8.8367
    -8.8236  -8.8235  -8.8150  -8.8061  -8.7944  -8.7943  -8.7943  -8.7890
    -8.7601  -8.7478  -8.7379  -8.7377  -8.7308  -8.7296  -8.7294  -8.7219
    -8.7132  -8.7100  -8.7099  -8.7036  -8.7021  -8.6811  -8.6808  -8.6789
    -8.6779  -8.6773  -8.6755  -8.6557  -8.6320  -8.6316  -8.6156  -8.6154
    -8.5941  -8.5919  -8.5835  -8.5768  -8.5695  -8.5689  -8.5612  -8.5572
    -8.5570  -8.5527  -8.5489  -8.5443  -8.5248  -8.5182  -8.5171  -8.5084
    -8.5073  -8.5068  -8.4896  -8.4848  -8.4773  -8.4757  -8.4692  -8.4690
    -8.4624  -8.4616  -8.4584  -8.4542  -8.4522  -8.4522  -8.4281  -8.4278
    -8.4163  -8.4162  -8.3693  -8.3095  -8.3088  -8.3085  -8.3067  -8.3064
    -8.2990  -8.2878  -8.2871  -8.2461  -8.2458  -8.2430  -8.2256  -8.2115
    -8.1766  -8.1684  -8.1648  -8.1648  -8.1637  -8.1548  -8.1465  -8.1461
    -8.1437  -8.1436  -8.1101  -8.1044  -8.1042  -8.0878  -8.0800  -8.0765
    -8.0709  -8.0708  -8.0660  -8.0649  -8.0618  -8.0595  -8.0584  -8.0561
    -8.0560  -8.0472  -8.0457  -8.0264  -8.0144  -7.9961  -7.9863  -7.9679
    -7.9633  -7.9546  -7.9501  -7.9378  -7.9374  -7.9346  -7.9285  -7.8805
    -7.8798  -7.8646  -7.8401  -7.8350  -7.8326  -7.8306  -7.8300  -7.8281
    -7.8195  -7.8114  -7.7862  -7.7692  -7.7458  -7.7293  -7.7261  -7.7249
    -7.6981  -7.6932  -7.6841  -7.6721  -7.6420  -7.6415  -7.6303  -7.6212
    -7.6136  -7.6135  -7.6075  -7.5979  -7.5912  -7.5895  -7.5605  -7.5594
    -7.5575  -7.5467  -7.5449  -7.5444  -7.5429  -7.5224  -7.5217  -7.4939
    -7.4907  -7.4796  -7.4749  -7.4640  -7.4563  -7.4400  -7.4344  -7.4309
    -7.4269  -7.4268  -7.3816  -7.3803  -7.3714  -7.3707  -7.3478  -7.3402
    -7.3165  -7.3135  -7.2506  -7.2503  -7.2228  -7.2224  -7.2120  -7.2078
    -7.1848  -7.1786  -7.1514  -7.1511  -7.1342  -7.1329  -7.1309  -7.1268
    -7.1183  -7.1171  -7.0517  -7.0414  -7.0399  -7.0395  -7.0326  -7.0300
    -7.0247  -7.0234  -7.0215  -7.0191  -6.9909  -6.9879  -6.9592  -6.9583
    -6.9559  -6.9452  -6.9451  -6.9433  -6.9417  -6.9287  -6.9265  -6.9230
    -6.9197  -6.8949  -6.8876  -6.8814  -6.8608  -6.8527  -6.8438  -6.8055
    -6.8033  -6.7958  -6.7952  -6.7763  -6.7759  -6.7587  -6.7544  -6.7056
    -6.7036  -6.7019  -6.6828  -6.6814  -6.6383  -6.6367  -6.5598  -6.5549
    -6.5515  -6.5343  -6.5330  -6.5297  -6.5291  -6.5169  -6.5157  -6.5153
    -6.5107  -6.4779  -6.4743  -6.4505  -6.4489  -6.4461  -6.4440  -6.4079
    -6.4057  -6.3913  -6.3911  -6.3879  -6.3873  -6.3744  -6.3724  -6.3688
    -6.3666  -6.3607  -6.3596  -6.3288  -6.3203  -6.3102  -6.3098  -6.2873
    -6.2870  -6.2742  -6.2661  -6.2478  -6.2386  -6.2366  -6.1740  -6.1676
    -6.1510  -6.1499  -6.1463  -6.1453  -6.1358  -6.1296  -6.1212  -6.1173
    -6.0704  -6.0617  -6.0582  -6.0322  -6.0304  -6.0257  -6.0244  -6.0220
    -6.0065  -5.9563  -5.9502  -5.8976  -5.8944  -5.8856  -5.8750  -5.8676
    -5.8594  -5.8560  -5.8529  -5.8411  -5.8411  -5.8148  -5.7796  -5.7622
    -5.7601  -5.7474  -5.7268  -5.7237  -5.7173  -5.7015  -5.6919  -5.6682
    -5.6576  -5.6530  -5.6431  -5.6428  -5.6388  -5.6377  -5.6319  -5.6284
    -5.6269  -5.6184  -5.6134  -5.6037  -5.5811  -5.5754  -5.5625  -5.5613
    -5.5504  -5.5458  -5.5450  -5.5425  -5.5366  -5.5343  -5.5043  -5.5023
    -5.4998  -5.4973  -5.3895  -5.3855  -5.3831  -5.3816  -5.3467  -5.3440
    -5.3161  -5.3142  -5.3123  -5.3119  -5.2565  -5.2537  -5.2225  -5.2200
    -5.2100  -5.2095  -5.1778  -5.1759  -5.1491  -5.1470  -5.1338  -5.1321
    -5.1168  -5.1165  -5.0579  -5.0571  -5.0381  -5.0370  -4.9780  -4.9765
    -4.9425  -4.9418  -4.8829  -4.8816  -4.7874  -4.7858  -4.7637  -4.7635
    -4.7389  -4.7384  -4.6923  -4.6919  -0.1501  -0.1044  -0.0582  -0.0402
    -0.0107   0.0030   0.0346   0.0581   0.0709   0.0929   0.0966   0.1112
     0.1132   0.1298   0.1338   0.1435   0.1575   0.1627   0.1655   0.1699
     0.1742

          k = 0.3333 0.0000 0.0000 (****** PWs)   bands (ev):

   -23.9782 -22.3414 -22.3050 -22.2631 -22.2512 -22.2306 -22.2280 -22.2271
   -22.1758 -22.1584 -22.1542 -22.1034 -22.0986 -22.0355 -22.0319 -22.0253
   -22.0051 -22.0047 -21.9565 -21.9515 -21.9362 -21.9330 -21.9322 -21.8816
   -21.8804 -21.8612 -21.8578 -21.7369 -21.7349 -21.7165 -21.6698 -21.6688
   -21.6471 -21.6456 -21.6452 -21.6416 -21.6395 -21.6394 -21.5917 -21.5725
   -21.5722 -21.5229 -21.5200 -21.5177 -21.5162 -21.4333 -21.4324 -21.3785
   -21.3782 -21.3130 -21.3118 -21.3102 -21.2906 -21.2903 -21.2425 -21.2379
   -21.1802 -21.1791 -21.1557 -21.1524 -21.1522 -21.0923 -21.0913 -21.0889
   -21.0847 -21.0834 -21.0834 -21.0386 -21.0379 -21.0362 -21.0359 -20.9715
   -20.9711 -20.9026 -20.9021 -20.8905 -20.8898 -20.8221 -20.8202 -20.8199
   -20.7596 -20.7550 -20.7138 -20.7133 -20.6451 -20.6289 -20.6282 -20.5971
   -20.5959 -20.5858 -20.5813 -20.5744 -20.5737 -20.5733 -20.5728 -20.5696
   -20.5696 -20.5197 -20.5192 -20.5087 -20.5084 -20.4613 -20.4609 -20.4080
   -20.4073 -20.3382 -20.3376 -20.2890 -20.2880 -20.2778 -20.2759 -20.2751
   -20.2623 -20.2619 -20.2239 -20.2198 -20.1598 -20.1592 -20.1296 -20.1291
   -20.0905 -20.0880 -20.0878 -20.0701 -20.0693 -20.0411 -20.0371 -19.9935
   -19.9919 -19.9826 -19.9805 -19.9567 -19.9560 -19.9055 -19.9041 -19.9013
   -19.9010 -19.9007 -19.9003 -19.8590 -19.8580 -19.8337 -19.8332 -19.7867
   -19.7860 -19.7772 -19.7768 -19.7479 -19.7468 -19.7198 -19.6937 -19.6931
   -19.6859 -19.6841 -19.6811 -19.6784 -19.6771 -19.6768 -19.5836 -19.5829
   -19.5470 -19.5450 -19.5414 -19.5317 -19.5304 -19.5108 -19.5083 -19.4801
   -19.4788 -19.4748 -19.4587 -19.4530 -19.4519 -19.4477 -19.4473 -19.4406
   -19.4406 -19.4401 -19.4386 -19.4371 -19.4368 -19.3941 -19.3886 -19.3878
   -19.3875 -19.3562 -19.3505 -19.3450 -19.3446 -19.3005 -19.3000 -19.2880
   -19.2860 -19.2620 -19.2584 -19.2581 -19.2535 -19.2448 -19.2436 -19.2435
   -19.2297 -19.2244 -19.2188 -19.2112 -19.2079 -19.2067 -19.2017 -19.1995
   -19.1989 -19.1960 -19.1938 -19.1936 -19.1911 -19.1908 -19.1790 -19.1783
   -19.1779 -19.1427 -19.1128 -19.1082 -19.0869 -19.0771 -19.0768 -19.0713
   -19.0712 -19.0698 -19.0611 -19.0518 -19.0329 -19.0293 -19.0154 -19.0078
   -18.9992 -18.9989 -18.9981 -18.9864 -18.9860 -18.9008 -18.8881 -18.8874
   -18.8841 -18.8779 -18.8486 -18.8376 -18.8365 -18.8300 -18.8244 -18.8168
   -18.7773 -18.7717 -18.7684 -18.7648 -18.7580 -18.7336 -18.6981 -18.6703
   -18.6614 -13.5577 -13.5351 -13.5351 -13.5287 -13.4792 -13.4790 -13.4725
   -13.4686 -13.4684 -13.4547 -13.4546 -13.4277 -13.3444 -13.3440 -13.3271
   -13.3268 -13.3100 -13.2404 -13.2385 -13.2365 -13.2338 -13.2326 -13.2166
   -13.2144 -13.2142 -13.2074 -13.1950 -13.1947 -13.1889 -13.1889 -13.1883
   -13.1870 -13.1746 -13.1740 -13.1603 -13.1595 -13.1407 -13.1363 -13.1018
   -13.0975 -13.0640 -13.0033 -13.0033 -13.0010 -12.9970 -12.9703 -12.9587
   -12.9565 -12.9396 -12.9371 -12.9148 -12.9126 -12.9095 -12.9070 -12.9023
   -12.9003 -12.8615 -12.8613 -12.8191 -12.8165 -12.8133 -12.8118 -12.8087
   -12.8073 -12.8068 -12.8052 -12.8049 -12.8027 -12.7641 -12.7489 -12.7435
   -12.7358 -12.7333 -12.7288 -12.7267 -12.7042 -12.6998 -12.6728 -12.6569
   -12.6527 -12.6511 -12.6489 -12.6464 -12.6463 -12.6454 -12.6442 -12.5925
   -12.5789 -12.5787 -12.5741 -12.5393 -12.5392 -12.5286 -12.5004 -12.4999
   -12.4144 -12.3882 -12.3836 -12.3676 -12.3673 -12.3282 -12.3256 -12.3023
   -12.3016 -12.2755 -12.2750 -12.2736 -12.2731 -12.2727 -12.2725 -12.2512
   -12.2509 -12.2053 -12.2048 -12.2023 -12.2020 -12.1833 -12.1796 -12.1793
   -12.1780 -12.1762 -12.1758 -12.1696 -12.1691 -12.0847 -12.0381 -12.0379
   -12.0110 -12.0099 -11.9471 -11.9468 -11.8753 -11.8294 -11.7920 -11.7709
   -11.7399 -11.7388 -11.7048 -11.7043 -11.6944 -11.6905 -11.6463 -11.5366
   -11.5364 -11.5296 -11.4556 -11.4246 -11.4235 -11.4191 -11.4146 -11.4122
   -11.4119 -11.4002 -11.3981 -11.3813 -11.3811 -11.3809 -11.3669 -11.3600
   -11.3549 -11.3284 -11.3277 -11.2363 -11.2322 -11.1945 -11.1940 -11.1509
   -11.1503 -11.1248 -11.1242 -11.1096 -11.1077 -11.1074 -11.1069 -11.1064
   -11.1063 -11.1018 -11.0989 -11.0989 -11.0962 -11.0962 -11.0910 -11.0872
   -10.9701 -10.9692 -10.9360 -10.9320 -10.8439 -10.8438 -10.8314 -10.8265
   -10.8145 -10.8098 -10.7810 -10.7808 -10.7591 -10.6993 -10.6527 -10.6522
   -10.6261 -10.6253 -10.5873 -10.5872 -10.5841 -10.5824 -10.5789 -10.5766
   -10.5747 -10.5746 -10.4987 -10.4978 -10.4975 -10.4917 -10.4871 -10.4424
   -10.4417 -10.3999 -10.3991 -10.3875 -10.3834 -10.3109 -10.2763 -10.2760
   -10.2137 -10.2128 -10.1774 -10.1772 -10.1765 -10.1465 -10.1450 -10.1445
   -10.1287 -10.1286 -10.0999 -10.0991 -10.0754 -10.0505 -10.0455 -10.0348
   -10.0345  -9.9751  -9.9708  -9.9229  -9.8779  -9.8751  -9.8634  -9.8628
    -9.8539  -9.8538  -9.8219  -9.8189  -9.8185  -9.8170  -9.8131  -9.8128
    -9.8128  -9.7978  -9.7882  -9.7831  -9.7756  -9.7713  -9.7705  -9.7691
    -9.7689  -9.7680  -9.7675  -9.7618  -9.7616  -9.7580  -9.7547  -9.7535
    -9.7535  -9.7511  -9.7510  -9.7006  -9.6975  -9.6973  -9.6887  -9.6886
    -9.6770  -9.6719  -9.6719  -9.6694  -9.6085  -9.6084  -9.6038  -9.5943
    -9.5891  -9.5887  -9.5882  -9.5151  -9.5137  -9.5128  -9.5045  -9.5002
    -9.4949  -9.4718  -9.4706  -9.4692  -9.4669  -9.4564  -9.4563  -9.4109
    -9.4100  -9.4059  -9.3953  -9.3936  -9.3771  -9.3727  -9.3724  -9.3710
    -9.3705  -9.3699  -9.3698  -9.3394  -9.3113  -9.3102  -9.3074  -9.3049
    -9.3043  -9.2984  -9.2754  -9.2701  -9.2638  -9.2635  -9.2463  -9.2462
    -9.2037  -9.2035  -9.1918  -9.1903  -9.1902  -9.1600  -9.1111  -9.1102
    -9.1048  -9.1016  -9.0979  -9.0976  -9.0838  -9.0798  -9.0788  -9.0723
    -9.0714  -9.0624  -9.0620  -9.0572  -9.0566  -9.0201  -9.0090  -9.0086
    -9.0085  -8.9879  -8.9811  -8.9806  -8.9766  -8.9748  -8.9747  -8.9161
    -8.9156  -8.9097  -8.9040  -8.8847  -8.8835  -8.8826  -8.8820  -8.8777
    -8.8771  -8.8641  -8.8629  -8.8625  -8.8621  -8.8571  -8.8570  -8.8509
    -8.8509  -8.8345  -8.8344  -8.8336  -8.8300  -8.8216  -8.8215  -8.8200
    -8.8198  -8.8197  -8.8175  -8.8158  -8.8155  -8.8155  -8.8105  -8.8081
    -8.8064  -8.8023  -8.8023  -8.7923  -8.7923  -8.7753  -8.7708  -8.7697
    -8.7696  -8.7440  -8.7408  -8.6972  -8.6936  -8.6933  -8.6907  -8.6629
    -8.6627  -8.6528  -8.6524  -8.6440  -8.6438  -8.6256  -8.6222  -8.6218
    -8.6179  -8.5829  -8.5823  -8.5811  -8.5792  -8.5791  -8.5606  -8.5605
    -8.5532  -8.5528  -8.5380  -8.5255  -8.5246  -8.5063  -8.5059  -8.5007
    -8.4986  -8.4697  -8.4693  -8.4675  -8.4401  -8.4399  -8.4376  -8.4329
    -8.4324  -8.4315  -8.4274  -8.4272  -8.4267  -8.4266  -8.4065  -8.4064
    -8.3996  -8.3992  -8.3980  -8.3946  -8.3600  -8.3598  -8.3535  -8.3421
    -8.3336  -8.3336  -8.3173  -8.3107  -8.3107  -8.2409  -8.2242  -8.2223
    -8.2167  -8.2156  -8.2155  -8.2019  -8.2015  -8.2005  -8.2000  -8.1997
    -8.1995  -8.1609  -8.1518  -8.1504  -8.1495  -8.1388  -8.1379  -8.1373
    -8.1367  -8.1273  -8.1271  -8.1250  -8.1109  -8.1107  -8.0816  -8.0675
    -8.0597  -8.0154  -8.0153  -7.9798  -7.9659  -7.9547  -7.9545  -7.9542
    -7.9535  -7.9500  -7.9486  -7.9486  -7.9473  -7.8933  -7.8931  -7.8789
    -7.8532  -7.8524  -7.8387  -7.8029  -7.8027  -7.7988  -7.7727  -7.7690
    -7.7624  -7.7541  -7.7529  -7.7403  -7.7351  -7.7330  -7.7108  -7.7104
    -7.7054  -7.7052  -7.7032  -7.6851  -7.6510  -7.6508  -7.6363  -7.6360
    -7.6044  -7.5868  -7.5783  -7.5368  -7.5307  -7.5207  -7.5190  -7.5096
    -7.5092  -7.5074  -7.5051  -7.5050  -7.4883  -7.4880  -7.4858  -7.4793
    -7.4790  -7.4729  -7.4726  -7.4695  -7.4636  -7.4611  -7.4351  -7.4296
    -7.4189  -7.4124  -7.3758  -7.3663  -7.3661  -7.3542  -7.3540  -7.3530
    -7.3489  -7.3328  -7.3308  -7.2756  -7.2739  -7.2503  -7.2496  -7.1975
    -7.1970  -7.1806  -7.1772  -7.1672  -7.1624  -7.1495  -7.1490  -7.1442
    -7.1441  -7.1437  -7.1425  -7.1067  -7.1030  -7.0945  -7.0925  -7.0916
    -7.0851  -7.0849  -7.0743  -7.0713  -7.0458  -7.0455  -7.0184  -7.0143
    -6.9308  -6.9286  -6.9258  -6.9238  -6.8815  -6.8812  -6.8567  -6.8566
    -6.8305  -6.8281  -6.8252  -6.8141  -6.8096  -6.7975  -6.7966  -6.7650
    -6.7644  -6.7623  -6.7596  -6.7548  -6.7129  -6.7123  -6.6913  -6.6890
    -6.6680  -6.6663  -6.6647  -6.6620  -6.6357  -6.6349  -6.6316  -6.6049
    -6.6044  -6.5909  -6.5608  -6.5591  -6.5548  -6.5543  -6.5539  -6.5534
    -6.5532  -6.5527  -6.4950  -6.4932  -6.4542  -6.4533  -6.4306  -6.4245
    -6.4144  -6.4110  -6.4081  -6.3940  -6.3933  -6.3728  -6.3726  -6.3433
    -6.3361  -6.3359  -6.3343  -6.3282  -6.3264  -6.3038  -6.2972  -6.2513
    -6.2487  -6.2433  -6.2418  -6.2393  -6.2362  -6.2349  -6.2348  -6.1972
    -6.1948  -6.1906  -6.1554  -6.1516  -6.0992  -6.0926  -6.0880  -6.0431
    -6.0419  -6.0276  -6.0265  -6.0197  -6.0186  -6.0169  -6.0013  -5.9919
    -5.9849  -5.9404  -5.9377  -5.9116  -5.9049  -5.8979  -5.8922  -5.8908
    -5.8791  -5.8710  -5.8703  -5.8700  -5.8682  -5.8681  -5.8678  -5.8068
    -5.7998  -5.7971  -5.7933  -5.7694  -5.7432  -5.7373  -5.7197  -5.7087
    -5.6555  -5.6510  -5.6464  -5.6404  -5.6015  -5.5939  -5.5844  -5.5796
    -5.5712  -5.5698  -5.5607  -5.5417  -5.5352  -5.5329  -5.5315  -5.5231
    -5.5202  -5.5138  -5.5123  -5.5112  -5.5083  -5.4970  -5.4966  -5.4935
    -5.4933  -5.4646  -5.4635  -5.4622  -5.4109  -5.3641  -5.3616  -5.3336
    -5.3240  -5.3230  -5.3184  -5.3179  -5.3168  -5.3082  -5.2750  -5.2478
    -5.2445  -5.2262  -5.2197  -5.1954  -5.1945  -5.1938  -5.1749  -5.1740
    -5.0399  -5.0295  -5.0191  -5.0159  -5.0081  -4.9583  -4.9475  -4.9461
    -4.9317  -4.9150  -4.9080  -4.8443  -4.8382  -4.8295  -4.8251  -4.8164
    -4.7727  -4.7121  -4.6690  -4.6528  -0.1543  -0.1158  -0.0373  -0.0146
     0.0045   0.0180   0.0202   0.0264   0.0392   0.0746   0.0906   0.1081
     0.1205   0.1334   0.1394   0.1425   0.1453   0.1465   0.1573   0.1632
     0.1695

          k = 0.3333 0.3849 0.0000 (****** PWs)   bands (ev):

   -23.9782 -22.3368 -22.2993 -22.2904 -22.2696 -22.2269 -22.1988 -22.1952
   -22.1732 -22.1646 -22.1421 -22.1213 -22.0988 -22.0952 -22.0436 -22.0270
   -22.0183 -21.9917 -21.9699 -21.9307 -21.9248 -21.9003 -21.8988 -21.8953
   -21.8284 -21.8249 -21.8057 -21.8035 -21.7774 -21.7733 -21.7327 -21.7111
   -21.7071 -21.6825 -21.6537 -21.6315 -21.5884 -21.5853 -21.5575 -21.5428
   -21.5218 -21.5174 -21.5084 -21.4908 -21.4646 -21.4254 -21.4233 -21.3941
   -21.3707 -21.3547 -21.3320 -21.3276 -21.3037 -21.2770 -21.2612 -21.2321
   -21.2164 -21.2118 -21.2092 -21.1875 -21.1497 -21.1461 -21.1229 -21.1202
   -21.0978 -21.0729 -21.0356 -20.9939 -20.9892 -20.9696 -20.9664 -20.9508
   -20.9386 -20.9019 -20.8532 -20.8361 -20.8319 -20.8158 -20.8000 -20.7965
   -20.7908 -20.7897 -20.7715 -20.7218 -20.7091 -20.7086 -20.6947 -20.6787
   -20.6594 -20.6477 -20.6416 -20.6392 -20.6144 -20.5806 -20.5370 -20.5327
   -20.4871 -20.4784 -20.4550 -20.4545 -20.4454 -20.4371 -20.3909 -20.3886
   -20.3644 -20.3495 -20.3254 -20.3065 -20.3049 -20.2742 -20.2727 -20.2588
   -20.2495 -20.2327 -20.1856 -20.1823 -20.1722 -20.1631 -20.1580 -20.1397
   -20.1310 -20.1211 -20.1011 -20.0863 -20.0668 -20.0640 -20.0564 -20.0366
   -20.0215 -20.0025 -20.0013 -19.9991 -19.9573 -19.9567 -19.9401 -19.9198
   -19.9018 -19.8995 -19.8717 -19.8427 -19.8390 -19.8087 -19.7904 -19.7699
   -19.7646 -19.7641 -19.7398 -19.7174 -19.7133 -19.7114 -19.6976 -19.6708
   -19.6542 -19.6515 -19.6444 -19.6275 -19.6213 -19.6202 -19.6161 -19.6141
   -19.6113 -19.5896 -19.5646 -19.5424 -19.5404 -19.5386 -19.5311 -19.5219
   -19.5199 -19.5153 -19.5014 -19.4987 -19.4932 -19.4901 -19.4663 -19.4479
   -19.4436 -19.4086 -19.3988 -19.3950 -19.3760 -19.3652 -19.3626 -19.3606
   -19.3502 -19.3481 -19.3378 -19.3377 -19.3372 -19.3240 -19.3114 -19.2903
   -19.2866 -19.2805 -19.2750 -19.2679 -19.2618 -19.2519 -19.2507 -19.2387
   -19.2377 -19.2245 -19.2185 -19.2149 -19.2093 -19.2068 -19.2020 -19.2006
   -19.1993 -19.1987 -19.1919 -19.1915 -19.1684 -19.1611 -19.1479 -19.1420
   -19.1418 -19.1346 -19.1338 -19.1279 -19.1246 -19.0957 -19.0933 -19.0853
   -19.0772 -19.0708 -19.0674 -19.0626 -19.0610 -19.0589 -19.0247 -19.0028
   -18.9761 -18.9594 -18.9560 -18.9450 -18.9243 -18.9182 -18.9150 -18.9117
   -18.9113 -18.8698 -18.8620 -18.8536 -18.8514 -18.8429 -18.8349 -18.8085
   -18.7876 -18.7660 -18.7636 -18.7515 -18.7186 -18.7121 -18.7098 -18.6810
   -18.6738 -13.5438 -13.5273 -13.5197 -13.4996 -13.4991 -13.4895 -13.4820
   -13.4355 -13.4235 -13.4184 -13.4012 -13.4000 -13.3885 -13.3871 -13.3725
   -13.3375 -13.3348 -13.3281 -13.3204 -13.3072 -13.2992 -13.2824 -13.2784
   -13.2724 -13.2693 -13.2337 -13.2195 -13.2070 -13.2013 -13.1709 -13.1677
   -13.1465 -13.1151 -13.1005 -13.0995 -13.0940 -13.0879 -13.0672 -13.0557
   -13.0357 -13.0348 -13.0164 -13.0153 -12.9670 -12.9624 -12.9559 -12.9533
   -12.9471 -12.9430 -12.9397 -12.9346 -12.9170 -12.8995 -12.8973 -12.8824
   -12.8799 -12.8658 -12.8619 -12.8591 -12.8145 -12.7940 -12.7877 -12.7872
   -12.7773 -12.7762 -12.7757 -12.7515 -12.7410 -12.7361 -12.7272 -12.7257
   -12.7165 -12.7136 -12.6943 -12.6882 -12.6733 -12.6713 -12.6693 -12.6668
   -12.6651 -12.6592 -12.6473 -12.6428 -12.6298 -12.6289 -12.6169 -12.6059
   -12.6034 -12.5865 -12.5774 -12.5732 -12.5696 -12.5681 -12.5610 -12.5560
   -12.5440 -12.5416 -12.5078 -12.4787 -12.4704 -12.4662 -12.4540 -12.4191
   -12.4127 -12.4106 -12.4039 -12.4011 -12.3888 -12.3584 -12.3055 -12.2407
   -12.2342 -12.2212 -12.2104 -12.1248 -12.1113 -12.1005 -12.0758 -12.0383
   -12.0260 -11.9868 -11.9535 -11.9326 -11.9266 -11.9183 -11.9154 -11.9048
   -11.8928 -11.8803 -11.8777 -11.8646 -11.8621 -11.8421 -11.8073 -11.7867
   -11.7791 -11.7644 -11.7599 -11.7188 -11.6513 -11.6358 -11.6133 -11.6121
   -11.6049 -11.6010 -11.5564 -11.5519 -11.5360 -11.5340 -11.5331 -11.5233
   -11.5179 -11.5168 -11.5118 -11.5055 -11.5049 -11.4690 -11.4303 -11.4219
   -11.3555 -11.3240 -11.3172 -11.3091 -11.3077 -11.3014 -11.2563 -11.2109
   -11.2105 -11.1583 -11.1492 -11.1482 -11.1436 -11.1140 -11.0769 -11.0714
   -11.0679 -11.0037 -10.9997 -10.9545 -10.9208 -10.9193 -10.9044 -10.8911
   -10.8897 -10.8781 -10.8575 -10.8499 -10.8490 -10.8334 -10.7910 -10.7779
   -10.7751 -10.7193 -10.7113 -10.7031 -10.6866 -10.6847 -10.6838 -10.6818
   -10.6681 -10.6668 -10.6578 -10.6509 -10.6445 -10.6079 -10.5768 -10.5747
   -10.5592 -10.5560 -10.5387 -10.5095 -10.4860 -10.4181 -10.4019 -10.3697
   -10.3652 -10.3641 -10.3573 -10.3478 -10.3294 -10.3277 -10.3265 -10.2820
   -10.2768 -10.2659 -10.2519 -10.2227 -10.2206 -10.2163 -10.2074 -10.2003
   -10.1891 -10.1643 -10.1451 -10.1361 -10.1017 -10.1009 -10.0705 -10.0683
   -10.0646 -10.0334 -10.0333 -10.0086  -9.9930  -9.9728  -9.9724  -9.9532
    -9.9334  -9.9171  -9.9159  -9.8987  -9.8885  -9.8758  -9.8752  -9.8740
    -9.8686  -9.8672  -9.8537  -9.8534  -9.8353  -9.8272  -9.8237  -9.7752
    -9.7696  -9.7330  -9.7231  -9.7174  -9.7150  -9.6966  -9.6846  -9.6782
    -9.6625  -9.6552  -9.6541  -9.6473  -9.6248  -9.6242  -9.6149  -9.6148
    -9.6124  -9.5963  -9.5913  -9.5721  -9.5705  -9.5623  -9.5513  -9.5447
    -9.5432  -9.5221  -9.4992  -9.4863  -9.4758  -9.4642  -9.4544  -9.4520
    -9.4506  -9.4497  -9.4487  -9.4218  -9.4071  -9.3897  -9.3865  -9.3856
    -9.3833  -9.3825  -9.3804  -9.3704  -9.3575  -9.3530  -9.3368  -9.3326
    -9.3294  -9.3292  -9.3259  -9.3201  -9.3163  -9.3128  -9.3096  -9.3040
    -9.2940  -9.2727  -9.2424  -9.2329  -9.2325  -9.2248  -9.2175  -9.2105
    -9.2004  -9.1987  -9.1936  -9.1899  -9.1835  -9.1813  -9.1632  -9.1625
    -9.1600  -9.1570  -9.1559  -9.1534  -9.1526  -9.1513  -9.1150  -9.1097
    -9.1013  -9.0782  -9.0727  -9.0649  -9.0555  -9.0545  -9.0477  -9.0446
    -9.0435  -9.0351  -9.0333  -9.0227  -9.0056  -8.9992  -8.9941  -8.9680
    -8.9663  -8.9639  -8.9624  -8.9614  -8.9608  -8.9568  -8.9413  -8.9389
    -8.9145  -8.9074  -8.8998  -8.8955  -8.8917  -8.8726  -8.8686  -8.8644
    -8.8641  -8.8575  -8.8433  -8.8416  -8.8393  -8.8285  -8.8270  -8.8158
    -8.8153  -8.8076  -8.8054  -8.8052  -8.8022  -8.7967  -8.7929  -8.7864
    -8.7735  -8.7674  -8.7632  -8.7586  -8.7524  -8.7461  -8.7372  -8.7270
    -8.7166  -8.7003  -8.6959  -8.6882  -8.6849  -8.6803  -8.6797  -8.6781
    -8.6775  -8.6650  -8.6606  -8.6558  -8.6469  -8.6415  -8.6227  -8.6166
    -8.6155  -8.6144  -8.6136  -8.6094  -8.5999  -8.5995  -8.5951  -8.5855
    -8.5627  -8.5569  -8.5548  -8.5508  -8.5344  -8.5192  -8.5179  -8.5106
    -8.5058  -8.4876  -8.4857  -8.4843  -8.4823  -8.4690  -8.4677  -8.4599
    -8.4263  -8.4214  -8.4095  -8.4004  -8.3940  -8.3919  -8.3898  -8.3873
    -8.3591  -8.3503  -8.3454  -8.3433  -8.3315  -8.3228  -8.3114  -8.3089
    -8.3088  -8.3042  -8.3005  -8.2987  -8.2729  -8.2713  -8.2671  -8.2661
    -8.2624  -8.2485  -8.2361  -8.2342  -8.2102  -8.2028  -8.2025  -8.1983
    -8.1866  -8.1649  -8.1638  -8.1526  -8.1356  -8.0998  -8.0859  -8.0627
    -8.0615  -8.0606  -8.0559  -8.0532  -8.0468  -8.0361  -8.0170  -8.0121
    -8.0097  -7.9740  -7.9734  -7.9705  -7.9677  -7.9644  -7.9581  -7.9563
    -7.9511  -7.9168  -7.9078  -7.9017  -7.8893  -7.8863  -7.8812  -7.8799
    -7.8697  -7.8544  -7.8360  -7.8334  -7.8221  -7.8192  -7.8127  -7.8106
    -7.8098  -7.8021  -7.7988  -7.7879  -7.7807  -7.7585  -7.7505  -7.7218
    -7.7113  -7.7084  -7.7073  -7.6978  -7.6962  -7.6885  -7.6628  -7.6602
    -7.6501  -7.6270  -7.6223  -7.6145  -7.6140  -7.6106  -7.6023  -7.5827
    -7.5700  -7.5623  -7.5586  -7.5583  -7.5236  -7.5224  -7.5135  -7.5080
    -7.4699  -7.4572  -7.4555  -7.4488  -7.3961  -7.3858  -7.3750  -7.3734
    -7.3674  -7.3460  -7.3451  -7.3422  -7.3407  -7.3376  -7.3328  -7.3272
    -7.3148  -7.3090  -7.2715  -7.2633  -7.2516  -7.2493  -7.2453  -7.2431
    -7.2166  -7.2037  -7.1960  -7.1811  -7.1759  -7.1591  -7.1526  -7.1508
    -7.1385  -7.1338  -7.1324  -7.1304  -7.0901  -7.0855  -7.0671  -7.0571
    -7.0531  -7.0276  -6.9942  -6.9601  -6.9596  -6.9539  -6.9527  -6.9467
    -6.9285  -6.9246  -6.9241  -6.9211  -6.9004  -6.8992  -6.8854  -6.8827
    -6.8802  -6.8740  -6.8613  -6.8424  -6.8222  -6.7963  -6.7945  -6.7797
    -6.7794  -6.7779  -6.7716  -6.7619  -6.7534  -6.7485  -6.7249  -6.7217
    -6.7038  -6.7023  -6.6948  -6.6810  -6.6675  -6.6411  -6.6388  -6.6365
    -6.6193  -6.6150  -6.5954  -6.5924  -6.5798  -6.5725  -6.5588  -6.5526
    -6.5517  -6.5346  -6.5164  -6.4745  -6.4634  -6.4520  -6.4461  -6.4430
    -6.4264  -6.3988  -6.3850  -6.3620  -6.3557  -6.3548  -6.3537  -6.3173
    -6.3165  -6.3073  -6.2924  -6.2877  -6.2779  -6.2673  -6.2643  -6.2532
    -6.2399  -6.2190  -6.2070  -6.1997  -6.1881  -6.1755  -6.1635  -6.1618
    -6.1490  -6.1463  -6.1450  -6.1368  -6.1265  -6.1245  -6.1072  -6.0961
    -6.0746  -6.0654  -6.0606  -6.0477  -6.0374  -6.0241  -6.0206  -6.0192
    -6.0101  -6.0044  -6.0021  -5.9888  -5.9726  -5.9631  -5.9586  -5.9499
    -5.9193  -5.8972  -5.8775  -5.8348  -5.8152  -5.8090  -5.7846  -5.7665
    -5.7639  -5.7613  -5.7372  -5.7284  -5.7254  -5.7180  -5.7142  -5.7106
    -5.6905  -5.6662  -5.6505  -5.6251  -5.6212  -5.6153  -5.6041  -5.5991
    -5.5757  -5.5750  -5.5626  -5.5501  -5.5392  -5.5294  -5.5267  -5.5240
    -5.5185  -5.5138  -5.5130  -5.5078  -5.5033  -5.4963  -5.4951  -5.4513
    -5.4361  -5.4264  -5.4233  -5.4189  -5.4161  -5.4157  -5.3877  -5.3859
    -5.3447  -5.3428  -5.3323  -5.3180  -5.3144  -5.3137  -5.3082  -5.2944
    -5.2847  -5.2340  -5.2122  -5.1626  -5.1392  -5.1233  -5.1180  -5.0824
    -5.0687  -5.0675  -5.0588  -5.0581  -4.9879  -4.9796  -4.9697  -4.9682
    -4.9551  -4.9408  -4.8944  -4.8604  -4.8280  -4.8220  -4.8032  -4.7457
    -4.7382  -4.7354  -4.6869  -4.6742  -0.1419  -0.1046  -0.0885  -0.0570
     0.0141   0.0362   0.0496   0.0679   0.0806   0.0869   0.0934   0.1024
     0.1127   0.1243   0.1294   0.1463   0.1522   0.1617   0.1667   0.1699
     0.1740

     highest occupied, lowest unoccupied level (ev):    -4.6528   -0.1631

!    total energy              =  -10249.32692490 Ry
     total all-electron energy =    -40959.939051 Ry
     estimated scf accuracy    <       0.00000009 Ry

     The total energy is the sum of the following terms:
     one-electron contribution =  -90199.75499728 Ry
     hartree contribution      =   45511.30455540 Ry
     xc contribution           =   -2267.20312604 Ry
     ewald contribution        =   40090.03958496 Ry
     one-center paw contrib.   =   -3383.71294194 Ry

     convergence has been achieved in  11 iterations

     Writing all to output data dir ./hBN_water_Oup_Hdown.save/

     init_run     :    821.89s CPU    829.90s WALL (       1 calls)
     electrons    :  21236.47s CPU  21333.55s WALL (       1 calls)

     Called by init_run:
     wfcinit      :    796.58s CPU    803.64s WALL (       1 calls)
     potinit      :      3.32s CPU      3.39s WALL (       1 calls)
     hinit0       :      5.41s CPU      5.45s WALL (       1 calls)

     Called by electrons:
     c_bands      :  19495.68s CPU  19572.61s WALL (      11 calls)
     sum_band     :   1711.90s CPU   1723.83s WALL (      11 calls)
     v_of_rho     :      5.83s CPU      5.94s WALL (      12 calls)
     newd         :     21.31s CPU     29.38s WALL (      12 calls)
     PAW_pot      :      1.98s CPU      1.99s WALL (      12 calls)
     mix_rho      :      1.68s CPU      1.73s WALL (      11 calls)

     Called by c_bands:
     init_us_2    :     93.52s CPU     94.56s WALL (      92 calls)
     init_us_2:cp :     93.52s CPU     94.56s WALL (      92 calls)
     cegterg      :  19397.70s CPU  19471.57s WALL (      50 calls)

     Called by *egterg:
     cdiaghg      :    217.53s CPU    225.60s WALL (     547 calls)
     h_psi        :  10232.65s CPU  10268.22s WALL (     551 calls)
     s_psi        :   2888.38s CPU   2891.57s WALL (     551 calls)
     g_psi        :     16.09s CPU     16.11s WALL (     497 calls)

     Called by h_psi:
     h_psi:calbec :   3016.08s CPU   3018.24s WALL (     551 calls)
     vloc_psi     :   4285.58s CPU   4295.14s WALL (     551 calls)
     add_vuspsi   :   2901.11s CPU   2910.65s WALL (     551 calls)

     General routines
     calbec       :   3804.83s CPU   3807.47s WALL (     595 calls)
     fft          :      4.07s CPU      4.15s WALL (     132 calls)
     ffts         :      0.30s CPU      0.30s WALL (      11 calls)
     fftw         :   4218.71s CPU   4227.57s WALL (  353524 calls)

     Parallel routines

     PWSCF        :      6h 9m CPU      6h12m WALL


   This run was terminated on:   2:12:59  26Oct2022            

=------------------------------------------------------------------------------=
   JOB DONE.
=------------------------------------------------------------------------------=
