
     Program PWSCF v.7.1 starts on 25Oct2022 at 20: 0:46 
        Git branch: HEAD
        Last git commit: 564a7b486665e8dd0223d6e514b84195d1a96c10
        Last git commit date: Tue Jun 14 16:16:48 2022 +0000
        Last git commit subject: Merge branch 'update_version_number' into 'develop

     This program is part of the open-source Quantum ESPRESSO suite
     for quantum simulation of materials; please cite
         "P. Giannozzi et al., J. Phys.:Condens. Matter 21 395502 (2009);
         "P. Giannozzi et al., J. Phys.:Condens. Matter 29 465901 (2017);
         "P. Giannozzi et al., J. Chem. Phys. 152 154105 (2020);
          URL http://www.quantum-espresso.org", 
     in publications or presentations arising from this work. More details at
     http://www.quantum-espresso.org/quote

     Parallel version (MPI & OpenMP), running on     128 processor cores
     Number of MPI processes:               128
     Threads/MPI process:                     1

     MPI processes distributed on     1 nodes
     994321 MiB available memory on the printing compute node when the environment starts

     Reading input from scf.in

     Current dimensions of program PWSCF are:
     Max number of different atomic species (ntypx) = 10
     Max number of k-points (npk) =  40000
     Max angular momentum in pseudopotentials (lmaxx) =  4
     file N.pbe-n-kjpaw_psl.1.0.0.UPF: wavefunction(s)  2S renormalized
     file O.pbe-n-kjpaw_psl.1.0.0.UPF: wavefunction(s)  2S 2P renormalized
     file H.pbe-kjpaw_psl.1.0.0.UPF: wavefunction(s)  1S renormalized
     Message from routine setup:
     using ibrav=0 with symmetry is DISCOURAGED, use correct ibrav instead

     R & G space division:  proc/nbgrp/npool/nimage =     128
     Subspace diagonalization in iterative solution of the eigenvalue problem:
     one sub-group per band group will be used
     scalapack distributed-memory algorithm (size of sub-group: 10* 10 procs)


     Parallelization info
     --------------------
     sticks:   dense  smooth     PW     G-vecs:    dense   smooth      PW
     Min         635     635    160               109655   109655   13948
     Max         636     636    161               109660   109660   13955
     Sum       81311   81311  20563             14036177 14036177 1785661

     Using Slab Decomposition



     bravais-lattice index     =            0
     lattice parameter (alat)  =      75.7265  a.u.
     unit-cell volume          =  281543.9584 (a.u.)^3
     number of atoms/cell      =          515
     number of atomic types    =            4
     number of electrons       =      2056.00
     number of Kohn-Sham states=         1049
     kinetic-energy cutoff     =      51.4490  Ry
     charge density cutoff     =     205.7961  Ry
     scf convergence threshold =      1.0E-06
     mixing beta               =       0.7000
     number of iterations used =            8  plain     mixing
     Exchange-correlation= SLA  PW   PBX  PBC
                           (   1   4   3   4   0   0   0)

     celldm(1)=  75.726466  celldm(2)=   0.000000  celldm(3)=   0.000000
     celldm(4)=   0.000000  celldm(5)=   0.000000  celldm(6)=   0.000000

     crystal axes: (cart. coord. in units of alat)
               a(1) = (   1.000000   0.000000   0.000000 )  
               a(2) = (   0.000000   0.866026   0.000000 )  
               a(3) = (   0.000000   0.000000   0.748639 )  

     reciprocal axes: (cart. coord. in units 2 pi/alat)
               b(1) = (  1.000000  0.000000  0.000000 )  
               b(2) = (  0.000000  1.154700  0.000000 )  
               b(3) = (  0.000000  0.000000  1.335757 )  


     PseudoPot. # 1 for B  read from file:
     ./B.pbe-n-kjpaw_psl.1.0.0.UPF
     MD5 check sum: 8c825a5969375aca5c2c6ad5945b3059
     Pseudo is Projector augmented-wave + core cor, Zval =  3.0
     Generated using &quot;atomic&quot; code by A. Dal Corso  v.6.3
     Shape of augmentation charge: PSQ
     Using radial grid of 1059 points,  4 beta functions with: 
                l(1) =   0
                l(2) =   0
                l(3) =   1
                l(4) =   1
     Q(r) pseudized with 0 coefficients 


     PseudoPot. # 2 for N  read from file:
     ./N.pbe-n-kjpaw_psl.1.0.0.UPF
     MD5 check sum: 14c48229446f9f2d411169a3abcbc3fa
     Pseudo is Projector augmented-wave + core cor, Zval =  5.0
     Generated using &quot;atomic&quot; code by A. Dal Corso  v.6.3
     Shape of augmentation charge: PSQ
     Using radial grid of 1085 points,  4 beta functions with: 
                l(1) =   0
                l(2) =   0
                l(3) =   1
                l(4) =   1
     Q(r) pseudized with 0 coefficients 


     PseudoPot. # 3 for O  read from file:
     ./O.pbe-n-kjpaw_psl.1.0.0.UPF
     MD5 check sum: e99d9cef9b487d1ca56f5b95ecd0fd7a
     Pseudo is Projector augmented-wave + core cor, Zval =  6.0
     Generated using &quot;atomic&quot; code by A. Dal Corso  v.6.3
     Shape of augmentation charge: PSQ
     Using radial grid of 1095 points,  4 beta functions with: 
                l(1) =   0
                l(2) =   0
                l(3) =   1
                l(4) =   1
     Q(r) pseudized with 0 coefficients 


     PseudoPot. # 4 for H  read from file:
     ./H.pbe-kjpaw_psl.1.0.0.UPF
     MD5 check sum: d81a744832360e4a8af0b0b5b123bc2a
     Pseudo is Projector augmented-wave, Zval =  1.0
     Generated using &quot;atomic&quot; code by A. Dal Corso  v.6.3MaX
     Shape of augmentation charge: PSQ
     Using radial grid of  929 points,  2 beta functions with: 
                l(1) =   0
                l(2) =   0
     Q(r) pseudized with 0 coefficients 


     atomic species   valence    mass     pseudopotential
        B              3.00    10.81100     B ( 1.00)
        N              5.00    14.00670     N ( 1.00)
        O              6.00    15.99900     O ( 1.00)
        H              1.00     1.00784     H ( 1.00)

      2 Sym. Ops. (no inversion) found ( 1 have fractional translation)



   Cartesian axes

     site n.     atom                  positions (alat units)
         1           B   tau(   1) = (   0.9687500   0.0180422   0.1497278  )
         2           B   tau(   2) = (   0.9687500   0.1262954   0.1497278  )
         3           B   tau(   3) = (   0.9687500   0.2345486   0.1497278  )
         4           B   tau(   4) = (   0.9687500   0.3428018   0.1497278  )
         5           B   tau(   5) = (   0.9687500   0.4510550   0.1497278  )
         6           B   tau(   6) = (   0.9687500   0.5593082   0.1497278  )
         7           B   tau(   7) = (   0.9687500   0.6675614   0.1497278  )
         8           B   tau(   8) = (   0.9687500   0.7758146   0.1497278  )
         9           B   tau(   9) = (   0.0937500   0.0180422   0.1497278  )
        10           B   tau(  10) = (   0.0937500   0.1262954   0.1497278  )
        11           B   tau(  11) = (   0.0937500   0.2345486   0.1497278  )
        12           B   tau(  12) = (   0.0937500   0.3428018   0.1497278  )
        13           B   tau(  13) = (   0.0937500   0.4510550   0.1497278  )
        14           B   tau(  14) = (   0.0937500   0.5593082   0.1497278  )
        15           B   tau(  15) = (   0.0937500   0.6675614   0.1497278  )
        16           B   tau(  16) = (   0.0937500   0.7758146   0.1497278  )
        17           B   tau(  17) = (   0.2187500   0.0180422   0.1497278  )
        18           B   tau(  18) = (   0.2187500   0.1262954   0.1497278  )
        19           B   tau(  19) = (   0.2187500   0.2345486   0.1497278  )
        20           B   tau(  20) = (   0.2187500   0.3428018   0.1497278  )
        21           B   tau(  21) = (   0.2187500   0.4510550   0.1497278  )
        22           B   tau(  22) = (   0.2187500   0.5593082   0.1497278  )
        23           B   tau(  23) = (   0.2187500   0.6675614   0.1497278  )
        24           B   tau(  24) = (   0.2187500   0.7758146   0.1497278  )
        25           B   tau(  25) = (   0.3437500   0.0180422   0.1497278  )
        26           B   tau(  26) = (   0.3437500   0.1262954   0.1497278  )
        27           B   tau(  27) = (   0.3437500   0.2345486   0.1497278  )
        28           B   tau(  28) = (   0.3437500   0.3428018   0.1497278  )
        29           B   tau(  29) = (   0.3437500   0.4510550   0.1497278  )
        30           B   tau(  30) = (   0.3437500   0.5593082   0.1497278  )
        31           B   tau(  31) = (   0.3437500   0.6675614   0.1497278  )
        32           B   tau(  32) = (   0.3437500   0.7758146   0.1497278  )
        33           B   tau(  33) = (   0.4687500   0.0180422   0.1497278  )
        34           B   tau(  34) = (   0.4687500   0.1262954   0.1497278  )
        35           B   tau(  35) = (   0.4687500   0.2345486   0.1497278  )
        36           B   tau(  36) = (   0.4687500   0.3428018   0.1497278  )
        37           B   tau(  37) = (   0.4687500   0.4510550   0.1497278  )
        38           B   tau(  38) = (   0.4687500   0.5593082   0.1497278  )
        39           B   tau(  39) = (   0.4687500   0.6675614   0.1497278  )
        40           B   tau(  40) = (   0.4687500   0.7758146   0.1497278  )
        41           B   tau(  41) = (   0.5937500   0.0180422   0.1497278  )
        42           B   tau(  42) = (   0.5937500   0.1262954   0.1497278  )
        43           B   tau(  43) = (   0.5937500   0.2345486   0.1497278  )
        44           B   tau(  44) = (   0.5937500   0.3428018   0.1497278  )
        45           B   tau(  45) = (   0.5937500   0.4510550   0.1497278  )
        46           B   tau(  46) = (   0.5937500   0.5593082   0.1497278  )
        47           B   tau(  47) = (   0.5937500   0.6675614   0.1497278  )
        48           B   tau(  48) = (   0.5937500   0.7758146   0.1497278  )
        49           B   tau(  49) = (   0.7187500   0.0180422   0.1497278  )
        50           B   tau(  50) = (   0.7187500   0.1262954   0.1497278  )
        51           B   tau(  51) = (   0.7187500   0.2345486   0.1497278  )
        52           B   tau(  52) = (   0.7187500   0.3428018   0.1497278  )
        53           B   tau(  53) = (   0.7187500   0.4510550   0.1497278  )
        54           B   tau(  54) = (   0.7187500   0.5593082   0.1497278  )
        55           B   tau(  55) = (   0.7187500   0.6675614   0.1497278  )
        56           B   tau(  56) = (   0.7187500   0.7758146   0.1497278  )
        57           B   tau(  57) = (   0.8437500   0.0180422   0.1497278  )
        58           B   tau(  58) = (   0.8437500   0.1262954   0.1497278  )
        59           B   tau(  59) = (   0.8437500   0.2345486   0.1497278  )
        60           B   tau(  60) = (   0.8437500   0.3428018   0.1497278  )
        61           B   tau(  61) = (   0.8437500   0.4510550   0.1497278  )
        62           B   tau(  62) = (   0.8437500   0.5593082   0.1497278  )
        63           B   tau(  63) = (   0.8437500   0.6675614   0.1497278  )
        64           B   tau(  64) = (   0.8437500   0.7758146   0.1497278  )
        65           B   tau(  65) = (   0.0312500   0.0180422   0.1497278  )
        66           B   tau(  66) = (   0.0312500   0.1262954   0.1497278  )
        67           B   tau(  67) = (   0.0312500   0.2345486   0.1497278  )
        68           B   tau(  68) = (   0.0312500   0.3428018   0.1497278  )
        69           B   tau(  69) = (   0.0312500   0.4510550   0.1497278  )
        70           B   tau(  70) = (   0.0312500   0.5593082   0.1497278  )
        71           B   tau(  71) = (   0.0312500   0.6675614   0.1497278  )
        72           B   tau(  72) = (   0.0312500   0.7758146   0.1497278  )
        73           B   tau(  73) = (   0.1562500   0.0180422   0.1497278  )
        74           B   tau(  74) = (   0.1562500   0.1262954   0.1497278  )
        75           B   tau(  75) = (   0.1562500   0.2345486   0.1497278  )
        76           B   tau(  76) = (   0.1562500   0.3428018   0.1497278  )
        77           B   tau(  77) = (   0.1562500   0.4510550   0.1497278  )
        78           B   tau(  78) = (   0.1562500   0.5593082   0.1497278  )
        79           B   tau(  79) = (   0.1562500   0.6675614   0.1497278  )
        80           B   tau(  80) = (   0.1562500   0.7758146   0.1497278  )
        81           B   tau(  81) = (   0.2812500   0.0180422   0.1497278  )
        82           B   tau(  82) = (   0.2812500   0.1262954   0.1497278  )
        83           B   tau(  83) = (   0.2812500   0.2345486   0.1497278  )
        84           B   tau(  84) = (   0.2812500   0.3428018   0.1497278  )
        85           B   tau(  85) = (   0.2812500   0.4510550   0.1497278  )
        86           B   tau(  86) = (   0.2812500   0.5593082   0.1497278  )
        87           B   tau(  87) = (   0.2812500   0.6675614   0.1497278  )
        88           B   tau(  88) = (   0.2812500   0.7758146   0.1497278  )
        89           B   tau(  89) = (   0.4062500   0.0180422   0.1497278  )
        90           B   tau(  90) = (   0.4062500   0.1262954   0.1497278  )
        91           B   tau(  91) = (   0.4062500   0.2345486   0.1497278  )
        92           B   tau(  92) = (   0.4062500   0.3428018   0.1497278  )
        93           B   tau(  93) = (   0.4062500   0.4510550   0.1497278  )
        94           B   tau(  94) = (   0.4062500   0.5593082   0.1497278  )
        95           B   tau(  95) = (   0.4062500   0.6675614   0.1497278  )
        96           B   tau(  96) = (   0.4062500   0.7758146   0.1497278  )
        97           B   tau(  97) = (   0.5312500   0.0180422   0.1497278  )
        98           B   tau(  98) = (   0.5312500   0.1262954   0.1497278  )
        99           B   tau(  99) = (   0.5312500   0.2345486   0.1497278  )
       100           B   tau( 100) = (   0.5312500   0.3428018   0.1497278  )
       101           B   tau( 101) = (   0.5312500   0.4510550   0.1497278  )
       102           B   tau( 102) = (   0.5312500   0.5593082   0.1497278  )
       103           B   tau( 103) = (   0.5312500   0.6675614   0.1497278  )
       104           B   tau( 104) = (   0.5312500   0.7758146   0.1497278  )
       105           B   tau( 105) = (   0.6562500   0.0180422   0.1497278  )
       106           B   tau( 106) = (   0.6562500   0.1262954   0.1497278  )
       107           B   tau( 107) = (   0.6562500   0.2345486   0.1497278  )
       108           B   tau( 108) = (   0.6562500   0.3428018   0.1497278  )
       109           B   tau( 109) = (   0.6562500   0.4510550   0.1497278  )
       110           B   tau( 110) = (   0.6562500   0.5593082   0.1497278  )
       111           B   tau( 111) = (   0.6562500   0.6675614   0.1497278  )
       112           B   tau( 112) = (   0.6562500   0.7758146   0.1497278  )
       113           B   tau( 113) = (   0.7812500   0.0180422   0.1497278  )
       114           B   tau( 114) = (   0.7812500   0.1262954   0.1497278  )
       115           B   tau( 115) = (   0.7812500   0.2345486   0.1497278  )
       116           B   tau( 116) = (   0.7812500   0.3428018   0.1497278  )
       117           B   tau( 117) = (   0.7812500   0.4510550   0.1497278  )
       118           B   tau( 118) = (   0.7812500   0.5593082   0.1497278  )
       119           B   tau( 119) = (   0.7812500   0.6675614   0.1497278  )
       120           B   tau( 120) = (   0.7812500   0.7758146   0.1497278  )
       121           B   tau( 121) = (   0.9062500   0.0180422   0.1497278  )
       122           B   tau( 122) = (   0.9062500   0.1262954   0.1497278  )
       123           B   tau( 123) = (   0.9062500   0.2345486   0.1497278  )
       124           B   tau( 124) = (   0.9062500   0.3428018   0.1497278  )
       125           B   tau( 125) = (   0.9062500   0.4510550   0.1497278  )
       126           B   tau( 126) = (   0.9062500   0.5593082   0.1497278  )
       127           B   tau( 127) = (   0.9062500   0.6675614   0.1497278  )
       128           B   tau( 128) = (   0.9062500   0.7758146   0.1497278  )
       129           B   tau( 129) = (   0.0000000   0.8299412   0.1497278  )
       130           B   tau( 130) = (   0.0000000   0.0721688   0.1497278  )
       131           B   tau( 131) = (   0.0000000   0.1804220   0.1497278  )
       132           B   tau( 132) = (   0.0000000   0.2886752   0.1497278  )
       133           B   tau( 133) = (   0.0000000   0.3969284   0.1497278  )
       134           B   tau( 134) = (   0.0000000   0.5051816   0.1497278  )
       135           B   tau( 135) = (   0.0000000   0.6134348   0.1497278  )
       136           B   tau( 136) = (   0.0000000   0.7216880   0.1497278  )
       137           B   tau( 137) = (   0.1250000   0.8299412   0.1497278  )
       138           B   tau( 138) = (   0.1250000   0.0721688   0.1497278  )
       139           B   tau( 139) = (   0.1250000   0.1804220   0.1497278  )
       140           B   tau( 140) = (   0.1250000   0.2886752   0.1497278  )
       141           B   tau( 141) = (   0.1250000   0.3969284   0.1497278  )
       142           B   tau( 142) = (   0.1250000   0.5051816   0.1497278  )
       143           B   tau( 143) = (   0.1250000   0.6134348   0.1497278  )
       144           B   tau( 144) = (   0.1250000   0.7216880   0.1497278  )
       145           B   tau( 145) = (   0.2500000   0.8299412   0.1497278  )
       146           B   tau( 146) = (   0.2500000   0.0721688   0.1497278  )
       147           B   tau( 147) = (   0.2500000   0.1804220   0.1497278  )
       148           B   tau( 148) = (   0.2500000   0.2886752   0.1497278  )
       149           B   tau( 149) = (   0.2500000   0.3969284   0.1497278  )
       150           B   tau( 150) = (   0.2500000   0.5051816   0.1497278  )
       151           B   tau( 151) = (   0.2500000   0.6134348   0.1497278  )
       152           B   tau( 152) = (   0.2500000   0.7216880   0.1497278  )
       153           B   tau( 153) = (   0.3750000   0.8299412   0.1497278  )
       154           B   tau( 154) = (   0.3750000   0.0721688   0.1497278  )
       155           B   tau( 155) = (   0.3750000   0.1804220   0.1497278  )
       156           B   tau( 156) = (   0.3750000   0.2886752   0.1497278  )
       157           B   tau( 157) = (   0.3750000   0.3969284   0.1497278  )
       158           B   tau( 158) = (   0.3750000   0.5051816   0.1497278  )
       159           B   tau( 159) = (   0.3750000   0.6134348   0.1497278  )
       160           B   tau( 160) = (   0.3750000   0.7216880   0.1497278  )
       161           B   tau( 161) = (   0.5000000   0.8299412   0.1497278  )
       162           B   tau( 162) = (   0.5000000   0.0721688   0.1497278  )
       163           B   tau( 163) = (   0.5000000   0.1804220   0.1497278  )
       164           B   tau( 164) = (   0.5000000   0.2886752   0.1497278  )
       165           B   tau( 165) = (   0.5000000   0.3969284   0.1497278  )
       166           B   tau( 166) = (   0.5000000   0.5051816   0.1497278  )
       167           B   tau( 167) = (   0.5000000   0.6134348   0.1497278  )
       168           B   tau( 168) = (   0.5000000   0.7216880   0.1497278  )
       169           B   tau( 169) = (   0.6250000   0.8299412   0.1497278  )
       170           B   tau( 170) = (   0.6250000   0.0721688   0.1497278  )
       171           B   tau( 171) = (   0.6250000   0.1804220   0.1497278  )
       172           B   tau( 172) = (   0.6250000   0.2886752   0.1497278  )
       173           B   tau( 173) = (   0.6250000   0.3969284   0.1497278  )
       174           B   tau( 174) = (   0.6250000   0.5051816   0.1497278  )
       175           B   tau( 175) = (   0.6250000   0.6134348   0.1497278  )
       176           B   tau( 176) = (   0.6250000   0.7216880   0.1497278  )
       177           B   tau( 177) = (   0.7500000   0.8299412   0.1497278  )
       178           B   tau( 178) = (   0.7500000   0.0721688   0.1497278  )
       179           B   tau( 179) = (   0.7500000   0.1804220   0.1497278  )
       180           B   tau( 180) = (   0.7500000   0.2886752   0.1497278  )
       181           B   tau( 181) = (   0.7500000   0.3969284   0.1497278  )
       182           B   tau( 182) = (   0.7500000   0.5051816   0.1497278  )
       183           B   tau( 183) = (   0.7500000   0.6134348   0.1497278  )
       184           B   tau( 184) = (   0.7500000   0.7216880   0.1497278  )
       185           B   tau( 185) = (   0.8750000   0.8299412   0.1497278  )
       186           B   tau( 186) = (   0.8750000   0.0721688   0.1497278  )
       187           B   tau( 187) = (   0.8750000   0.1804220   0.1497278  )
       188           B   tau( 188) = (   0.8750000   0.2886752   0.1497278  )
       189           B   tau( 189) = (   0.8750000   0.3969284   0.1497278  )
       190           B   tau( 190) = (   0.8750000   0.5051816   0.1497278  )
       191           B   tau( 191) = (   0.8750000   0.6134348   0.1497278  )
       192           B   tau( 192) = (   0.8750000   0.7216880   0.1497278  )
       193           B   tau( 193) = (   0.0625000   0.8299412   0.1497278  )
       194           B   tau( 194) = (   0.0625000   0.0721688   0.1497278  )
       195           B   tau( 195) = (   0.0625000   0.1804220   0.1497278  )
       196           B   tau( 196) = (   0.0625000   0.2886752   0.1497278  )
       197           B   tau( 197) = (   0.0625000   0.3969284   0.1497278  )
       198           B   tau( 198) = (   0.0625000   0.5051816   0.1497278  )
       199           B   tau( 199) = (   0.0625000   0.6134348   0.1497278  )
       200           B   tau( 200) = (   0.0625000   0.7216880   0.1497278  )
       201           B   tau( 201) = (   0.1875000   0.8299412   0.1497278  )
       202           B   tau( 202) = (   0.1875000   0.0721688   0.1497278  )
       203           B   tau( 203) = (   0.1875000   0.1804220   0.1497278  )
       204           B   tau( 204) = (   0.1875000   0.2886752   0.1497278  )
       205           B   tau( 205) = (   0.1875000   0.3969284   0.1497278  )
       206           B   tau( 206) = (   0.1875000   0.5051816   0.1497278  )
       207           B   tau( 207) = (   0.1875000   0.6134348   0.1497278  )
       208           B   tau( 208) = (   0.1875000   0.7216880   0.1497278  )
       209           B   tau( 209) = (   0.3125000   0.8299412   0.1497278  )
       210           B   tau( 210) = (   0.3125000   0.0721688   0.1497278  )
       211           B   tau( 211) = (   0.3125000   0.1804220   0.1497278  )
       212           B   tau( 212) = (   0.3125000   0.2886752   0.1497278  )
       213           B   tau( 213) = (   0.3125000   0.3969284   0.1497278  )
       214           B   tau( 214) = (   0.3125000   0.5051816   0.1497278  )
       215           B   tau( 215) = (   0.3125000   0.6134348   0.1497278  )
       216           B   tau( 216) = (   0.3125000   0.7216880   0.1497278  )
       217           B   tau( 217) = (   0.4375000   0.8299412   0.1497278  )
       218           B   tau( 218) = (   0.4375000   0.0721688   0.1497278  )
       219           B   tau( 219) = (   0.4375000   0.1804220   0.1497278  )
       220           B   tau( 220) = (   0.4375000   0.2886752   0.1497278  )
       221           B   tau( 221) = (   0.4375000   0.3969284   0.1497278  )
       222           B   tau( 222) = (   0.4375000   0.5051816   0.1497278  )
       223           B   tau( 223) = (   0.4375000   0.6134348   0.1497278  )
       224           B   tau( 224) = (   0.4375000   0.7216880   0.1497278  )
       225           B   tau( 225) = (   0.5625000   0.8299412   0.1497278  )
       226           B   tau( 226) = (   0.5625000   0.0721688   0.1497278  )
       227           B   tau( 227) = (   0.5625000   0.1804220   0.1497278  )
       228           B   tau( 228) = (   0.5625000   0.2886752   0.1497278  )
       229           B   tau( 229) = (   0.5625000   0.3969284   0.1497278  )
       230           B   tau( 230) = (   0.5625000   0.5051816   0.1497278  )
       231           B   tau( 231) = (   0.5625000   0.6134348   0.1497278  )
       232           B   tau( 232) = (   0.5625000   0.7216880   0.1497278  )
       233           B   tau( 233) = (   0.6875000   0.8299412   0.1497278  )
       234           B   tau( 234) = (   0.6875000   0.0721688   0.1497278  )
       235           B   tau( 235) = (   0.6875000   0.1804220   0.1497278  )
       236           B   tau( 236) = (   0.6875000   0.2886752   0.1497278  )
       237           B   tau( 237) = (   0.6875000   0.3969284   0.1497278  )
       238           B   tau( 238) = (   0.6875000   0.5051816   0.1497278  )
       239           B   tau( 239) = (   0.6875000   0.6134348   0.1497278  )
       240           B   tau( 240) = (   0.6875000   0.7216880   0.1497278  )
       241           B   tau( 241) = (   0.8125000   0.8299412   0.1497278  )
       242           B   tau( 242) = (   0.8125000   0.0721688   0.1497278  )
       243           B   tau( 243) = (   0.8125000   0.1804220   0.1497278  )
       244           B   tau( 244) = (   0.8125000   0.2886752   0.1497278  )
       245           B   tau( 245) = (   0.8125000   0.3969284   0.1497278  )
       246           B   tau( 246) = (   0.8125000   0.5051816   0.1497278  )
       247           B   tau( 247) = (   0.8125000   0.6134348   0.1497278  )
       248           B   tau( 248) = (   0.8125000   0.7216880   0.1497278  )
       249           B   tau( 249) = (   0.9375000   0.8299412   0.1497278  )
       250           B   tau( 250) = (   0.9375000   0.0721688   0.1497278  )
       251           B   tau( 251) = (   0.9375000   0.1804220   0.1497278  )
       252           B   tau( 252) = (   0.9375000   0.2886752   0.1497278  )
       253           B   tau( 253) = (   0.9375000   0.3969284   0.1497278  )
       254           B   tau( 254) = (   0.9375000   0.5051816   0.1497278  )
       255           B   tau( 255) = (   0.9375000   0.6134348   0.1497278  )
       256           B   tau( 256) = (   0.9375000   0.7216880   0.1497278  )
       257           N   tau( 257) = (   0.9687500   0.8479833   0.1497278  )
       258           N   tau( 258) = (   0.9687500   0.0902110   0.1497278  )
       259           N   tau( 259) = (   0.9687500   0.1984642   0.1497278  )
       260           N   tau( 260) = (   0.9687500   0.3067174   0.1497278  )
       261           N   tau( 261) = (   0.9687500   0.4149705   0.1497278  )
       262           N   tau( 262) = (   0.9687500   0.5232237   0.1497278  )
       263           N   tau( 263) = (   0.9687500   0.6314769   0.1497278  )
       264           N   tau( 264) = (   0.9687500   0.7397301   0.1497278  )
       265           N   tau( 265) = (   0.0937500   0.8479833   0.1497278  )
       266           N   tau( 266) = (   0.0937500   0.0902110   0.1497278  )
       267           N   tau( 267) = (   0.0937500   0.1984642   0.1497278  )
       268           N   tau( 268) = (   0.0937500   0.3067174   0.1497278  )
       269           N   tau( 269) = (   0.0937500   0.4149705   0.1497278  )
       270           N   tau( 270) = (   0.0937500   0.5232237   0.1497278  )
       271           N   tau( 271) = (   0.0937500   0.6314769   0.1497278  )
       272           N   tau( 272) = (   0.0937500   0.7397301   0.1497278  )
       273           N   tau( 273) = (   0.2187500   0.8479833   0.1497278  )
       274           N   tau( 274) = (   0.2187500   0.0902110   0.1497278  )
       275           N   tau( 275) = (   0.2187500   0.1984642   0.1497278  )
       276           N   tau( 276) = (   0.2187500   0.3067174   0.1497278  )
       277           N   tau( 277) = (   0.2187500   0.4149705   0.1497278  )
       278           N   tau( 278) = (   0.2187500   0.5232237   0.1497278  )
       279           N   tau( 279) = (   0.2187500   0.6314769   0.1497278  )
       280           N   tau( 280) = (   0.2187500   0.7397301   0.1497278  )
       281           N   tau( 281) = (   0.3437500   0.8479833   0.1497278  )
       282           N   tau( 282) = (   0.3437500   0.0902110   0.1497278  )
       283           N   tau( 283) = (   0.3437500   0.1984642   0.1497278  )
       284           N   tau( 284) = (   0.3437500   0.3067174   0.1497278  )
       285           N   tau( 285) = (   0.3437500   0.4149705   0.1497278  )
       286           N   tau( 286) = (   0.3437500   0.5232237   0.1497278  )
       287           N   tau( 287) = (   0.3437500   0.6314769   0.1497278  )
       288           N   tau( 288) = (   0.3437500   0.7397301   0.1497278  )
       289           N   tau( 289) = (   0.4687500   0.8479833   0.1497278  )
       290           N   tau( 290) = (   0.4687500   0.0902110   0.1497278  )
       291           N   tau( 291) = (   0.4687500   0.1984642   0.1497278  )
       292           N   tau( 292) = (   0.4687500   0.3067174   0.1497278  )
       293           N   tau( 293) = (   0.4687500   0.4149705   0.1497278  )
       294           N   tau( 294) = (   0.4687500   0.5232237   0.1497278  )
       295           N   tau( 295) = (   0.4687500   0.6314769   0.1497278  )
       296           N   tau( 296) = (   0.4687500   0.7397301   0.1497278  )
       297           N   tau( 297) = (   0.5937500   0.8479833   0.1497278  )
       298           N   tau( 298) = (   0.5937500   0.0902110   0.1497278  )
       299           N   tau( 299) = (   0.5937500   0.1984642   0.1497278  )
       300           N   tau( 300) = (   0.5937500   0.3067174   0.1497278  )
       301           N   tau( 301) = (   0.5937500   0.4149705   0.1497278  )
       302           N   tau( 302) = (   0.5937500   0.5232237   0.1497278  )
       303           N   tau( 303) = (   0.5937500   0.6314769   0.1497278  )
       304           N   tau( 304) = (   0.5937500   0.7397301   0.1497278  )
       305           N   tau( 305) = (   0.7187500   0.8479833   0.1497278  )
       306           N   tau( 306) = (   0.7187500   0.0902110   0.1497278  )
       307           N   tau( 307) = (   0.7187500   0.1984642   0.1497278  )
       308           N   tau( 308) = (   0.7187500   0.3067174   0.1497278  )
       309           N   tau( 309) = (   0.7187500   0.4149705   0.1497278  )
       310           N   tau( 310) = (   0.7187500   0.5232237   0.1497278  )
       311           N   tau( 311) = (   0.7187500   0.6314769   0.1497278  )
       312           N   tau( 312) = (   0.7187500   0.7397301   0.1497278  )
       313           N   tau( 313) = (   0.8437500   0.8479833   0.1497278  )
       314           N   tau( 314) = (   0.8437500   0.0902110   0.1497278  )
       315           N   tau( 315) = (   0.8437500   0.1984642   0.1497278  )
       316           N   tau( 316) = (   0.8437500   0.3067174   0.1497278  )
       317           N   tau( 317) = (   0.8437500   0.4149705   0.1497278  )
       318           N   tau( 318) = (   0.8437500   0.5232237   0.1497278  )
       319           N   tau( 319) = (   0.8437500   0.6314769   0.1497278  )
       320           N   tau( 320) = (   0.8437500   0.7397301   0.1497278  )
       321           N   tau( 321) = (   0.0312500   0.8479833   0.1497278  )
       322           N   tau( 322) = (   0.0312500   0.0902110   0.1497278  )
       323           N   tau( 323) = (   0.0312500   0.1984642   0.1497278  )
       324           N   tau( 324) = (   0.0312500   0.3067174   0.1497278  )
       325           N   tau( 325) = (   0.0312500   0.4149705   0.1497278  )
       326           N   tau( 326) = (   0.0312500   0.5232237   0.1497278  )
       327           N   tau( 327) = (   0.0312500   0.6314769   0.1497278  )
       328           N   tau( 328) = (   0.0312500   0.7397301   0.1497278  )
       329           N   tau( 329) = (   0.1562500   0.8479833   0.1497278  )
       330           N   tau( 330) = (   0.1562500   0.0902110   0.1497278  )
       331           N   tau( 331) = (   0.1562500   0.1984642   0.1497278  )
       332           N   tau( 332) = (   0.1562500   0.3067174   0.1497278  )
       333           N   tau( 333) = (   0.1562500   0.4149705   0.1497278  )
       334           N   tau( 334) = (   0.1562500   0.5232237   0.1497278  )
       335           N   tau( 335) = (   0.1562500   0.6314769   0.1497278  )
       336           N   tau( 336) = (   0.1562500   0.7397301   0.1497278  )
       337           N   tau( 337) = (   0.2812500   0.8479833   0.1497278  )
       338           N   tau( 338) = (   0.2812500   0.0902110   0.1497278  )
       339           N   tau( 339) = (   0.2812500   0.1984642   0.1497278  )
       340           N   tau( 340) = (   0.2812500   0.3067174   0.1497278  )
       341           N   tau( 341) = (   0.2812500   0.4149705   0.1497278  )
       342           N   tau( 342) = (   0.2812500   0.5232237   0.1497278  )
       343           N   tau( 343) = (   0.2812500   0.6314769   0.1497278  )
       344           N   tau( 344) = (   0.2812500   0.7397301   0.1497278  )
       345           N   tau( 345) = (   0.4062500   0.8479833   0.1497278  )
       346           N   tau( 346) = (   0.4062500   0.0902110   0.1497278  )
       347           N   tau( 347) = (   0.4062500   0.1984642   0.1497278  )
       348           N   tau( 348) = (   0.4062500   0.3067174   0.1497278  )
       349           N   tau( 349) = (   0.4062500   0.4149705   0.1497278  )
       350           N   tau( 350) = (   0.4062500   0.5232237   0.1497278  )
       351           N   tau( 351) = (   0.4062500   0.6314769   0.1497278  )
       352           N   tau( 352) = (   0.4062500   0.7397301   0.1497278  )
       353           N   tau( 353) = (   0.5312500   0.8479833   0.1497278  )
       354           N   tau( 354) = (   0.5312500   0.0902110   0.1497278  )
       355           N   tau( 355) = (   0.5312500   0.1984642   0.1497278  )
       356           N   tau( 356) = (   0.5312500   0.3067174   0.1497278  )
       357           N   tau( 357) = (   0.5312500   0.4149705   0.1497278  )
       358           N   tau( 358) = (   0.5312500   0.5232237   0.1497278  )
       359           N   tau( 359) = (   0.5312500   0.6314769   0.1497278  )
       360           N   tau( 360) = (   0.5312500   0.7397301   0.1497278  )
       361           N   tau( 361) = (   0.6562500   0.8479833   0.1497278  )
       362           N   tau( 362) = (   0.6562500   0.0902110   0.1497278  )
       363           N   tau( 363) = (   0.6562500   0.1984642   0.1497278  )
       364           N   tau( 364) = (   0.6562500   0.3067174   0.1497278  )
       365           N   tau( 365) = (   0.6562500   0.4149705   0.1497278  )
       366           N   tau( 366) = (   0.6562500   0.5232237   0.1497278  )
       367           N   tau( 367) = (   0.6562500   0.6314769   0.1497278  )
       368           N   tau( 368) = (   0.6562500   0.7397301   0.1497278  )
       369           N   tau( 369) = (   0.7812500   0.8479833   0.1497278  )
       370           N   tau( 370) = (   0.7812500   0.0902110   0.1497278  )
       371           N   tau( 371) = (   0.7812500   0.1984642   0.1497278  )
       372           N   tau( 372) = (   0.7812500   0.3067174   0.1497278  )
       373           N   tau( 373) = (   0.7812500   0.4149705   0.1497278  )
       374           N   tau( 374) = (   0.7812500   0.5232237   0.1497278  )
       375           N   tau( 375) = (   0.7812500   0.6314769   0.1497278  )
       376           N   tau( 376) = (   0.7812500   0.7397301   0.1497278  )
       377           N   tau( 377) = (   0.9062500   0.8479833   0.1497278  )
       378           N   tau( 378) = (   0.9062500   0.0902110   0.1497278  )
       379           N   tau( 379) = (   0.9062500   0.1984642   0.1497278  )
       380           N   tau( 380) = (   0.9062500   0.3067174   0.1497278  )
       381           N   tau( 381) = (   0.9062500   0.4149705   0.1497278  )
       382           N   tau( 382) = (   0.9062500   0.5232237   0.1497278  )
       383           N   tau( 383) = (   0.9062500   0.6314769   0.1497278  )
       384           N   tau( 384) = (   0.9062500   0.7397301   0.1497278  )
       385           N   tau( 385) = (   0.0000000   0.0360844   0.1497278  )
       386           N   tau( 386) = (   0.0000000   0.1443376   0.1497278  )
       387           N   tau( 387) = (   0.0000000   0.2525908   0.1497278  )
       388           N   tau( 388) = (   0.0000000   0.3608439   0.1497278  )
       389           N   tau( 389) = (   0.0000000   0.4690971   0.1497278  )
       390           N   tau( 390) = (   0.0000000   0.5773503   0.1497278  )
       391           N   tau( 391) = (   0.0000000   0.6856035   0.1497278  )
       392           N   tau( 392) = (   0.0000000   0.7938567   0.1497278  )
       393           N   tau( 393) = (   0.1250000   0.0360844   0.1497278  )
       394           N   tau( 394) = (   0.1250000   0.1443376   0.1497278  )
       395           N   tau( 395) = (   0.1250000   0.2525908   0.1497278  )
       396           N   tau( 396) = (   0.1250000   0.3608439   0.1497278  )
       397           N   tau( 397) = (   0.1250000   0.4690971   0.1497278  )
       398           N   tau( 398) = (   0.1250000   0.5773503   0.1497278  )
       399           N   tau( 399) = (   0.1250000   0.6856035   0.1497278  )
       400           N   tau( 400) = (   0.1250000   0.7938567   0.1497278  )
       401           N   tau( 401) = (   0.2500000   0.0360844   0.1497278  )
       402           N   tau( 402) = (   0.2500000   0.1443376   0.1497278  )
       403           N   tau( 403) = (   0.2500000   0.2525908   0.1497278  )
       404           N   tau( 404) = (   0.2500000   0.3608439   0.1497278  )
       405           N   tau( 405) = (   0.2500000   0.4690971   0.1497278  )
       406           N   tau( 406) = (   0.2500000   0.5773503   0.1497278  )
       407           N   tau( 407) = (   0.2500000   0.6856035   0.1497278  )
       408           N   tau( 408) = (   0.2500000   0.7938567   0.1497278  )
       409           N   tau( 409) = (   0.3750000   0.0360844   0.1497278  )
       410           N   tau( 410) = (   0.3750000   0.1443376   0.1497278  )
       411           N   tau( 411) = (   0.3750000   0.2525908   0.1497278  )
       412           N   tau( 412) = (   0.3750000   0.3608439   0.1497278  )
       413           N   tau( 413) = (   0.3750000   0.4690971   0.1497278  )
       414           N   tau( 414) = (   0.3750000   0.5773503   0.1497278  )
       415           N   tau( 415) = (   0.3750000   0.6856035   0.1497278  )
       416           N   tau( 416) = (   0.3750000   0.7938567   0.1497278  )
       417           N   tau( 417) = (   0.5000000   0.0360844   0.1497278  )
       418           N   tau( 418) = (   0.5000000   0.1443376   0.1497278  )
       419           N   tau( 419) = (   0.5000000   0.2525908   0.1497278  )
       420           N   tau( 420) = (   0.5000000   0.3608439   0.1497278  )
       421           N   tau( 421) = (   0.5000000   0.4690971   0.1497278  )
       422           N   tau( 422) = (   0.5000000   0.5773503   0.1497278  )
       423           N   tau( 423) = (   0.5000000   0.6856035   0.1497278  )
       424           N   tau( 424) = (   0.5000000   0.7938567   0.1497278  )
       425           N   tau( 425) = (   0.6250000   0.0360844   0.1497278  )
       426           N   tau( 426) = (   0.6250000   0.1443376   0.1497278  )
       427           N   tau( 427) = (   0.6250000   0.2525908   0.1497278  )
       428           N   tau( 428) = (   0.6250000   0.3608439   0.1497278  )
       429           N   tau( 429) = (   0.6250000   0.4690971   0.1497278  )
       430           N   tau( 430) = (   0.6250000   0.5773503   0.1497278  )
       431           N   tau( 431) = (   0.6250000   0.6856035   0.1497278  )
       432           N   tau( 432) = (   0.6250000   0.7938567   0.1497278  )
       433           N   tau( 433) = (   0.7500000   0.0360844   0.1497278  )
       434           N   tau( 434) = (   0.7500000   0.1443376   0.1497278  )
       435           N   tau( 435) = (   0.7500000   0.2525908   0.1497278  )
       436           N   tau( 436) = (   0.7500000   0.3608439   0.1497278  )
       437           N   tau( 437) = (   0.7500000   0.4690971   0.1497278  )
       438           N   tau( 438) = (   0.7500000   0.5773503   0.1497278  )
       439           N   tau( 439) = (   0.7500000   0.6856035   0.1497278  )
       440           N   tau( 440) = (   0.7500000   0.7938567   0.1497278  )
       441           N   tau( 441) = (   0.8750000   0.0360844   0.1497278  )
       442           N   tau( 442) = (   0.8750000   0.1443376   0.1497278  )
       443           N   tau( 443) = (   0.8750000   0.2525908   0.1497278  )
       444           N   tau( 444) = (   0.8750000   0.3608439   0.1497278  )
       445           N   tau( 445) = (   0.8750000   0.4690971   0.1497278  )
       446           N   tau( 446) = (   0.8750000   0.5773503   0.1497278  )
       447           N   tau( 447) = (   0.8750000   0.6856035   0.1497278  )
       448           N   tau( 448) = (   0.8750000   0.7938567   0.1497278  )
       449           N   tau( 449) = (   0.0625000   0.0360844   0.1497278  )
       450           N   tau( 450) = (   0.0625000   0.1443376   0.1497278  )
       451           N   tau( 451) = (   0.0625000   0.2525908   0.1497278  )
       452           N   tau( 452) = (   0.0625000   0.3608439   0.1497278  )
       453           N   tau( 453) = (   0.0625000   0.4690971   0.1497278  )
       454           N   tau( 454) = (   0.0625000   0.5773503   0.1497278  )
       455           N   tau( 455) = (   0.0625000   0.6856035   0.1497278  )
       456           N   tau( 456) = (   0.0625000   0.7938567   0.1497278  )
       457           N   tau( 457) = (   0.1875000   0.0360844   0.1497278  )
       458           N   tau( 458) = (   0.1875000   0.1443376   0.1497278  )
       459           N   tau( 459) = (   0.1875000   0.2525908   0.1497278  )
       460           N   tau( 460) = (   0.1875000   0.3608439   0.1497278  )
       461           N   tau( 461) = (   0.1875000   0.4690971   0.1497278  )
       462           N   tau( 462) = (   0.1875000   0.5773503   0.1497278  )
       463           N   tau( 463) = (   0.1875000   0.6856035   0.1497278  )
       464           N   tau( 464) = (   0.1875000   0.7938567   0.1497278  )
       465           N   tau( 465) = (   0.3125000   0.0360844   0.1497278  )
       466           N   tau( 466) = (   0.3125000   0.1443376   0.1497278  )
       467           N   tau( 467) = (   0.3125000   0.2525908   0.1497278  )
       468           N   tau( 468) = (   0.3125000   0.3608439   0.1497278  )
       469           N   tau( 469) = (   0.3125000   0.4690971   0.1497278  )
       470           N   tau( 470) = (   0.3125000   0.5773503   0.1497278  )
       471           N   tau( 471) = (   0.3125000   0.6856035   0.1497278  )
       472           N   tau( 472) = (   0.3125000   0.7938567   0.1497278  )
       473           N   tau( 473) = (   0.4375000   0.0360844   0.1497278  )
       474           N   tau( 474) = (   0.4375000   0.1443376   0.1497278  )
       475           N   tau( 475) = (   0.4375000   0.2525908   0.1497278  )
       476           N   tau( 476) = (   0.4375000   0.3608439   0.1497278  )
       477           N   tau( 477) = (   0.4375000   0.4690971   0.1497278  )
       478           N   tau( 478) = (   0.4375000   0.5773503   0.1497278  )
       479           N   tau( 479) = (   0.4375000   0.6856035   0.1497278  )
       480           N   tau( 480) = (   0.4375000   0.7938567   0.1497278  )
       481           N   tau( 481) = (   0.5625000   0.0360844   0.1497278  )
       482           N   tau( 482) = (   0.5625000   0.1443376   0.1497278  )
       483           N   tau( 483) = (   0.5625000   0.2525908   0.1497278  )
       484           N   tau( 484) = (   0.5625000   0.3608439   0.1497278  )
       485           N   tau( 485) = (   0.5625000   0.4690971   0.1497278  )
       486           N   tau( 486) = (   0.5625000   0.5773503   0.1497278  )
       487           N   tau( 487) = (   0.5625000   0.6856035   0.1497278  )
       488           N   tau( 488) = (   0.5625000   0.7938567   0.1497278  )
       489           N   tau( 489) = (   0.6875000   0.0360844   0.1497278  )
       490           N   tau( 490) = (   0.6875000   0.1443376   0.1497278  )
       491           N   tau( 491) = (   0.6875000   0.2525908   0.1497278  )
       492           N   tau( 492) = (   0.6875000   0.3608439   0.1497278  )
       493           N   tau( 493) = (   0.6875000   0.4690971   0.1497278  )
       494           N   tau( 494) = (   0.6875000   0.5773503   0.1497278  )
       495           N   tau( 495) = (   0.6875000   0.6856035   0.1497278  )
       496           N   tau( 496) = (   0.6875000   0.7938567   0.1497278  )
       497           N   tau( 497) = (   0.8125000   0.0360844   0.1497278  )
       498           N   tau( 498) = (   0.8125000   0.1443376   0.1497278  )
       499           N   tau( 499) = (   0.8125000   0.2525908   0.1497278  )
       500           N   tau( 500) = (   0.8125000   0.3608439   0.1497278  )
       501           N   tau( 501) = (   0.8125000   0.4690971   0.1497278  )
       502           N   tau( 502) = (   0.8125000   0.5773503   0.1497278  )
       503           N   tau( 503) = (   0.8125000   0.6856035   0.1497278  )
       504           N   tau( 504) = (   0.8125000   0.7938567   0.1497278  )
       505           N   tau( 505) = (   0.9375000   0.0360844   0.1497278  )
       506           N   tau( 506) = (   0.9375000   0.1443376   0.1497278  )
       507           N   tau( 507) = (   0.9375000   0.2525908   0.1497278  )
       508           N   tau( 508) = (   0.9375000   0.3608439   0.1497278  )
       509           N   tau( 509) = (   0.9375000   0.4690971   0.1497278  )
       510           N   tau( 510) = (   0.9375000   0.5773503   0.1497278  )
       511           N   tau( 511) = (   0.9375000   0.6856035   0.1497278  )
       512           N   tau( 512) = (   0.9375000   0.7938567   0.1497278  )
       513           O   tau( 513) = (   0.3750000   0.3247596   0.2342965  )
       514           H   tau( 514) = (   0.3750000   0.3436490   0.2196764  )
       515           H   tau( 515) = (   0.3750000   0.3058702   0.2196764  )

     number of k points=     4
                       cart. coord. in units 2pi/alat
        k(    1) = (   0.0000000   0.0000000   0.0000000), wk =   0.2222222
        k(    2) = (   0.0000000   0.3849001   0.0000000), wk =   0.4444444
        k(    3) = (   0.3333333   0.0000000   0.0000000), wk =   0.4444444
        k(    4) = (   0.3333333   0.3849001   0.0000000), wk =   0.8888889

     Dense  grid: 14036177 G-vectors     FFT dimensions: ( 360, 300, 270)

     Estimated max dynamical RAM per process >       3.34 GB

     Estimated total dynamical RAM >     427.44 GB

     Check: negative core charge=   -0.000007

     Initial potential from superposition of free atoms

     starting charge    2055.9258, renormalised to    2056.0000

     negative rho (up, down):  2.270E-01 0.000E+00
     Starting wfcs are 2054 randomized atomic wfcs
     Checking if some PAW data can be deallocated... 

     total cpu time spent up to now is      833.8 secs

     Self-consistent Calculation

     iteration #  1     ecut=    51.45 Ry     beta= 0.70
     Davidson diagonalization with overlap
     ethr =  1.00E-02,  avg # of iterations =  3.0

     negative rho (up, down):  5.915E-01 0.000E+00

     total cpu time spent up to now is     2615.0 secs

     total energy              =  -10210.30437169 Ry
     estimated scf accuracy    <     109.05272761 Ry

     iteration #  2     ecut=    51.45 Ry     beta= 0.70
     Davidson diagonalization with overlap
     ethr =  5.30E-03,  avg # of iterations =  3.5

     negative rho (up, down):  6.457E-01 0.000E+00

     total cpu time spent up to now is     4483.8 secs

     total energy              =  -10242.18073889 Ry
     estimated scf accuracy    <      47.75968342 Ry

     iteration #  3     ecut=    51.45 Ry     beta= 0.70
     Davidson diagonalization with overlap
     ethr =  2.32E-03,  avg # of iterations =  2.0

     negative rho (up, down):  7.792E-01 0.000E+00

     total cpu time spent up to now is     6049.5 secs

     total energy              =  -10248.42438249 Ry
     estimated scf accuracy    <       1.17606321 Ry

     iteration #  4     ecut=    51.45 Ry     beta= 0.70
     Davidson diagonalization with overlap
     ethr =  5.72E-05,  avg # of iterations =  6.2

     negative rho (up, down):  7.850E-01 0.000E+00

     total cpu time spent up to now is     8235.3 secs

     total energy              =  -10249.31770119 Ry
     estimated scf accuracy    <       1.47177499 Ry

     iteration #  5     ecut=    51.45 Ry     beta= 0.70
     Davidson diagonalization with overlap
     ethr =  5.72E-05,  avg # of iterations =  5.0

     negative rho (up, down):  7.918E-01 0.000E+00

     total cpu time spent up to now is     9527.7 secs

     total energy              =  -10249.27077910 Ry
     estimated scf accuracy    <       0.35529872 Ry

     iteration #  6     ecut=    51.45 Ry     beta= 0.70
     Davidson diagonalization with overlap
     ethr =  1.73E-05,  avg # of iterations =  2.0

     negative rho (up, down):  8.088E-01 0.000E+00

     total cpu time spent up to now is    10988.3 secs

     total energy              =  -10249.32731206 Ry
     estimated scf accuracy    <       0.01721697 Ry

     iteration #  7     ecut=    51.45 Ry     beta= 0.70
     Davidson diagonalization with overlap
     c_bands:  2 eigenvalues not converged
     c_bands:  5 eigenvalues not converged
     ethr =  8.37E-07,  avg # of iterations = 46.2

     negative rho (up, down):  8.090E-01 0.000E+00

     total cpu time spent up to now is    15227.4 secs

     total energy              =  -10249.33100750 Ry
     estimated scf accuracy    <       0.00149642 Ry

     iteration #  8     ecut=    51.45 Ry     beta= 0.70
     Davidson diagonalization with overlap
     ethr =  7.28E-08,  avg # of iterations =  8.5

     negative rho (up, down):  8.089E-01 0.000E+00

     total cpu time spent up to now is    17032.5 secs

     total energy              =  -10249.33134990 Ry
     estimated scf accuracy    <       0.00019398 Ry

     iteration #  9     ecut=    51.45 Ry     beta= 0.70
     Davidson diagonalization with overlap
     ethr =  9.43E-09,  avg # of iterations =  5.0

     negative rho (up, down):  8.088E-01 0.000E+00

     total cpu time spent up to now is    18386.4 secs

     total energy              =  -10249.33130602 Ry
     estimated scf accuracy    <       0.00015568 Ry

     iteration # 10     ecut=    51.45 Ry     beta= 0.70
     Davidson diagonalization with overlap
     ethr =  7.57E-09,  avg # of iterations =  4.0

     negative rho (up, down):  8.087E-01 0.000E+00

     total cpu time spent up to now is    19654.9 secs

     total energy              =  -10249.33130951 Ry
     estimated scf accuracy    <       0.00002090 Ry

     iteration # 11     ecut=    51.45 Ry     beta= 0.70
     Davidson diagonalization with overlap
     ethr =  1.02E-09,  avg # of iterations =  3.0

     negative rho (up, down):  8.088E-01 0.000E+00

     total cpu time spent up to now is    21511.4 secs

     End of self-consistent calculation

          k = 0.0000 0.0000 0.0000 (****** PWs)   bands (ev):

   -24.0799 -22.3399 -22.2852 -22.2707 -22.2556 -22.2553 -22.2045 -22.1989
   -22.1960 -22.1946 -22.1083 -22.1053 -22.0426 -22.0379 -22.0318 -22.0293
   -22.0286 -22.0276 -21.9785 -21.9782 -21.9726 -21.9721 -21.8330 -21.8307
   -21.8136 -21.8132 -21.8109 -21.8103 -21.7592 -21.7579 -21.7551 -21.7549
   -21.6709 -21.6706 -21.6162 -21.6159 -21.6096 -21.6096 -21.5440 -21.5431
   -21.5424 -21.5423 -21.4568 -21.4547 -21.4545 -21.4533 -21.4521 -21.4518
   -21.3860 -21.3848 -21.3819 -21.3814 -21.1982 -21.1973 -21.1946 -21.1944
   -21.1803 -21.1801 -21.1768 -21.1764 -21.1762 -21.1761 -21.1283 -21.1280
   -21.1221 -21.1221 -20.9914 -20.9910 -20.9750 -20.9746 -20.9721 -20.9721
   -20.9267 -20.9263 -20.9227 -20.9227 -20.8460 -20.8453 -20.8447 -20.8444
   -20.7349 -20.7341 -20.7340 -20.7336 -20.7277 -20.7274 -20.7264 -20.7264
   -20.5980 -20.5976 -20.5478 -20.5475 -20.5416 -20.5416 -20.4618 -20.4615
   -20.4307 -20.4297 -20.4290 -20.4286 -20.4075 -20.4067 -20.4048 -20.4043
   -20.4042 -20.4038 -20.4009 -20.4008 -20.3999 -20.3998 -20.3993 -20.3991
   -20.2386 -20.2382 -20.2377 -20.2376 -20.1784 -20.1779 -20.1768 -20.1767
   -20.0312 -20.0305 -20.0292 -20.0289 -19.9844 -19.9827 -19.9797 -19.9796
   -19.9781 -19.9780 -19.9373 -19.9364 -19.9313 -19.9305 -19.9020 -19.9017
   -19.8896 -19.8891 -19.8886 -19.8882 -19.8584 -19.8582 -19.8552 -19.8551
   -19.8078 -19.8067 -19.8050 -19.8043 -19.7384 -19.7381 -19.7372 -19.7370
   -19.6576 -19.6570 -19.6534 -19.6534 -19.6093 -19.6078 -19.6071 -19.6067
   -19.5775 -19.5771 -19.5760 -19.5758 -19.5619 -19.5618 -19.5588 -19.5588
   -19.4721 -19.4606 -19.4257 -19.4196 -19.4180 -19.4164 -19.3754 -19.3747
   -19.3693 -19.3677 -19.3664 -19.3661 -19.3648 -19.3641 -19.3559 -19.3559
   -19.3482 -19.3481 -19.3477 -19.3477 -19.3135 -19.3119 -19.3115 -19.3095
   -19.3090 -19.3073 -19.3051 -19.3044 -19.3040 -19.3040 -19.3036 -19.3035
   -19.2661 -19.2660 -19.2608 -19.2608 -19.2472 -19.2412 -19.2412 -19.2080
   -19.2036 -19.1759 -19.1757 -19.1740 -19.1739 -19.1446 -19.1425 -19.1378
   -19.1374 -19.1333 -19.1332 -19.1328 -19.1328 -19.1003 -19.0989 -19.0433
   -19.0431 -19.0419 -19.0418 -18.9960 -18.9957 -18.9946 -18.9945 -18.9704
   -18.9699 -18.9624 -18.9624 -18.9548 -18.9534 -18.9455 -18.9449 -18.9408
   -18.9406 -18.9390 -18.9390 -18.8085 -18.8078 -18.7990 -18.7989 -18.7801
   -18.7798 -18.7776 -18.7773 -18.7768 -18.7768 -18.7045 -18.7044 -18.6692
   -18.6691 -13.5571 -13.5543 -13.5542 -13.5090 -13.5022 -13.4409 -13.4408
   -13.4305 -13.4304 -13.4143 -13.4143 -13.4138 -13.4138 -13.3739 -13.3702
   -13.3469 -13.3468 -13.3405 -13.3405 -13.2535 -13.2533 -13.2525 -13.2523
   -13.2181 -13.2093 -13.1737 -13.1678 -13.1662 -13.1643 -13.1515 -13.1512
   -13.0837 -13.0836 -13.0817 -13.0816 -13.0558 -13.0555 -13.0548 -13.0529
   -13.0529 -13.0518 -13.0507 -13.0499 -13.0499 -13.0495 -13.0491 -13.0489
   -13.0188 -13.0187 -13.0167 -13.0167 -12.8871 -12.8866 -12.8820 -12.8807
   -12.8769 -12.8763 -12.8725 -12.8721 -12.8620 -12.8617 -12.8599 -12.8598
   -12.8588 -12.8587 -12.7839 -12.7838 -12.7816 -12.7815 -12.6980 -12.6964
   -12.6915 -12.6911 -12.6741 -12.6740 -12.6724 -12.6723 -12.6507 -12.6507
   -12.6502 -12.6501 -12.6324 -12.6323 -12.6041 -12.6040 -12.5974 -12.5973
   -12.5612 -12.5611 -12.5582 -12.5581 -12.5129 -12.5124 -12.5121 -12.5117
   -12.4165 -12.4164 -12.4157 -12.4156 -12.3256 -12.3245 -12.3184 -12.3184
   -12.3171 -12.3171 -12.2922 -12.2920 -12.2888 -12.2880 -12.2655 -12.2650
   -12.2649 -12.2644 -12.2641 -12.2641 -12.2256 -12.2253 -12.2240 -12.2233
   -12.1657 -12.1653 -12.1652 -12.1646 -11.9935 -11.9935 -11.9925 -11.9925
   -11.9495 -11.9495 -11.9455 -11.9455 -11.8606 -11.7788 -11.7783 -11.7279
   -11.7278 -11.7271 -11.7269 -11.7248 -11.7247 -11.7242 -11.7242 -11.6746
   -11.6745 -11.6385 -11.6383 -11.4277 -11.4275 -11.4269 -11.4269 -11.4136
   -11.4136 -11.4106 -11.4106 -11.2686 -11.2683 -11.2672 -11.2670 -11.2266
   -11.2264 -11.2229 -11.2226 -11.2202 -11.2200 -11.1692 -11.1691 -11.1341
   -11.1334 -11.1237 -11.1230 -11.1230 -11.1221 -11.1200 -11.1196 -11.1192
   -11.1185 -11.1183 -11.1182 -11.1097 -11.1097 -11.0986 -11.0986 -11.0959
   -11.0959 -11.0537 -11.0527 -11.0495 -11.0491 -10.8077 -10.8076 -10.7783
   -10.7780 -10.7776 -10.7775 -10.7638 -10.7636 -10.7603 -10.7603 -10.6340
   -10.6339 -10.6336 -10.6333 -10.5383 -10.5381 -10.5380 -10.5373 -10.5367
   -10.5366 -10.4524 -10.4523 -10.4520 -10.4519 -10.4215 -10.4202 -10.3940
   -10.3939 -10.3935 -10.3933 -10.3609 -10.3607 -10.3604 -10.3602 -10.3172
   -10.3157 -10.3124 -10.3122 -10.1837 -10.1835 -10.1800 -10.1800 -10.1572
   -10.1570 -10.1532 -10.1532 -10.0029 -10.0028 -10.0021 -10.0020  -9.9937
    -9.9928  -9.9925  -9.9923  -9.9331  -9.9327  -9.9298  -9.9297  -9.9165
    -9.8461  -9.8432  -9.8428  -9.8335  -9.8334  -9.8270  -9.8075  -9.8047
    -9.7917  -9.7913  -9.7798  -9.7797  -9.7538  -9.7532  -9.7529  -9.7528
    -9.7505  -9.7500  -9.7497  -9.7490  -9.7485  -9.7483  -9.7395  -9.7297
    -9.7264  -9.7251  -9.7197  -9.7196  -9.7191  -9.7190  -9.6251  -9.6214
    -9.6090  -9.6031  -9.5434  -9.5433  -9.5406  -9.5404  -9.5387  -9.5349
    -9.5339  -9.5337  -9.5333  -9.5330  -9.5330  -9.5322  -9.5294  -9.5290
    -9.5286  -9.5283  -9.5214  -9.5170  -9.5169  -9.5168  -9.5168  -9.5094
    -9.5040  -9.5014  -9.5008  -9.4998  -9.4430  -9.4427  -9.4423  -9.4422
    -9.4345  -9.4319  -9.4252  -9.4251  -9.2828  -9.2827  -9.2789  -9.2788
    -9.2779  -9.2768  -9.2748  -9.2747  -9.2379  -9.2317  -9.2114  -9.2085
    -9.2054  -9.2053  -9.1383  -9.1338  -9.1309  -9.1305  -9.1219  -9.1211
    -9.1179  -9.1177  -9.0863  -9.0862  -9.0345  -9.0342  -9.0322  -9.0322
    -9.0308  -9.0194  -9.0160  -9.0138  -9.0051  -9.0050  -9.0000  -8.9999
    -8.9492  -8.9442  -8.9423  -8.9415  -8.9379  -8.9368  -8.9338  -8.9338
    -8.8800  -8.8794  -8.8752  -8.8748  -8.8544  -8.8541  -8.8538  -8.8536
    -8.8519  -8.8518  -8.8504  -8.8504  -8.8482  -8.8481  -8.8478  -8.8477
    -8.8471  -8.8423  -8.8423  -8.8421  -8.8414  -8.8408  -8.8380  -8.8379
    -8.8153  -8.8151  -8.8135  -8.8133  -8.8130  -8.8116  -8.8115  -8.8111
    -8.8049  -8.8049  -8.7978  -8.7917  -8.7917  -8.7417  -8.7412  -8.7409
    -8.7408  -8.7298  -8.7296  -8.7296  -8.7279  -8.7279  -8.7224  -8.7217
    -8.7213  -8.7201  -8.7189  -8.7186  -8.7175  -8.7020  -8.7019  -8.6967
    -8.6966  -8.6896  -8.6896  -8.6895  -8.6894  -8.6316  -8.6271  -8.6235
    -8.6231  -8.5259  -8.5256  -8.5251  -8.5251  -8.4822  -8.4816  -8.4802
    -8.4799  -8.4798  -8.4794  -8.4788  -8.4785  -8.4721  -8.4721  -8.3914
    -8.3912  -8.3818  -8.3698  -8.3663  -8.3659  -8.3487  -8.3461  -8.3434
    -8.3429  -8.3424  -8.3422  -8.3286  -8.3283  -8.3204  -8.3200  -8.3111
    -8.3111  -8.2794  -8.2787  -8.2784  -8.2773  -8.2772  -8.2764  -8.2689
    -8.2689  -8.2645  -8.2644  -8.2638  -8.2637  -8.1726  -8.1722  -8.1692
    -8.1692  -8.1019  -8.1019  -8.1018  -8.0952  -8.0932  -8.0910  -8.0910
    -8.0875  -8.0765  -8.0761  -8.0758  -8.0754  -8.0726  -8.0661  -8.0623
    -8.0622  -8.0423  -8.0421  -8.0420  -8.0420  -8.0132  -7.9988  -7.9945
    -7.9943  -7.9315  -7.8869  -7.8859  -7.8853  -7.8812  -7.8811  -7.8810
    -7.8808  -7.8751  -7.8751  -7.8744  -7.8741  -7.8594  -7.8157  -7.8154
    -7.8073  -7.8073  -7.7914  -7.7902  -7.7328  -7.7327  -7.7314  -7.7276
    -7.7250  -7.7233  -7.7233  -7.7157  -7.6161  -7.6153  -7.6149  -7.6145
    -7.6131  -7.6128  -7.6008  -7.6000  -7.5994  -7.5992  -7.5992  -7.5991
    -7.5405  -7.5374  -7.5302  -7.5291  -7.5275  -7.5271  -7.4736  -7.4709
    -7.4658  -7.4658  -7.3540  -7.3523  -7.3409  -7.3400  -7.3340  -7.3330
    -7.3072  -7.3066  -7.3049  -7.3032  -7.2778  -7.2749  -7.2747  -7.2732
    -7.2727  -7.2718  -7.2696  -7.2695  -7.2686  -7.2685  -7.2681  -7.2680
    -7.2522  -7.2519  -7.2515  -7.2515  -7.2417  -7.2415  -7.2343  -7.2342
    -7.1842  -7.1830  -7.1824  -7.1801  -7.1796  -7.1779  -7.0640  -7.0639
    -7.0383  -7.0374  -7.0365  -7.0365  -6.9777  -6.9747  -6.9705  -6.9703
    -6.9567  -6.9550  -6.9544  -6.9541  -6.9496  -6.9491  -6.9484  -6.9480
    -6.9478  -6.9476  -6.8847  -6.8821  -6.7424  -6.7419  -6.7399  -6.7396
    -6.6805  -6.6791  -6.6734  -6.6731  -6.6702  -6.6676  -6.6668  -6.6659
    -6.6644  -6.6643  -6.6070  -6.6050  -6.5987  -6.5985  -6.5612  -6.5604
    -6.5483  -6.5442  -6.5431  -6.5429  -6.5428  -6.5424  -6.5389  -6.5376
    -6.5367  -6.5345  -6.5324  -6.5313  -6.5307  -6.5298  -6.4986  -6.4977
    -6.4938  -6.4937  -6.4378  -6.4354  -6.4224  -6.4204  -6.4181  -6.4180
    -6.3191  -6.3176  -6.3166  -6.3162  -6.3156  -6.3104  -6.2598  -6.2515
    -6.2506  -6.2502  -6.2320  -6.2272  -6.1956  -6.1949  -6.1905  -6.1904
    -6.1401  -6.1369  -6.1350  -6.1328  -6.1322  -6.1317  -6.1087  -6.1006
    -6.0866  -6.0858  -6.0840  -6.0839  -6.0535  -6.0513  -6.0477  -6.0477
    -5.9890  -5.9886  -5.9064  -5.9052  -5.8965  -5.8465  -5.8388  -5.8360
    -5.8347  -5.7813  -5.7765  -5.7762  -5.7753  -5.7748  -5.7734  -5.7513
    -5.7464  -5.7461  -5.7442  -5.7438  -5.7433  -5.7388  -5.7388  -5.6806
    -5.6766  -5.6750  -5.6744  -5.6743  -5.6721  -5.6707  -5.6697  -5.6696
    -5.6694  -5.6690  -5.6689  -5.5983  -5.5967  -5.5924  -5.5923  -5.5636
    -5.5590  -5.5587  -5.5084  -5.5020  -5.4622  -5.4611  -5.4592  -5.4591
    -5.4268  -5.4235  -5.4207  -5.4199  -5.4160  -5.4157  -5.4146  -5.4144
    -5.3480  -5.3456  -5.2600  -5.2593  -5.2585  -5.2580  -5.1927  -5.1920
    -5.1911  -5.1908  -5.1534  -5.1522  -5.1456  -5.1455  -5.1296  -5.1274
    -5.1216  -5.1212  -5.1137  -5.1135  -5.1079  -5.1074  -4.8909  -4.8895
    -4.8823  -4.8821  -4.8510  -4.8503  -4.8457  -4.8456  -4.8456  -4.8454
    -4.7248  -4.7245  -4.6671  -4.6669  -0.1789  -0.0968  -0.0547  -0.0356
    -0.0256   0.0341   0.0460   0.0473   0.0685   0.0729   0.0738   0.0925
     0.0949   0.1215   0.1301   0.1369   0.1388   0.1393   0.1407   0.1474
     0.1537

          k = 0.0000 0.3849 0.0000 (****** PWs)   bands (ev):

   -24.0799 -22.3341 -22.2999 -22.2704 -22.2626 -22.2418 -22.2366 -22.1997
   -22.1448 -22.1375 -22.1264 -22.1001 -22.0975 -22.0759 -22.0719 -22.0649
   -22.0617 -21.9768 -21.9732 -21.9281 -21.9032 -21.8999 -21.8728 -21.8665
   -21.8246 -21.8229 -21.8071 -21.7963 -21.7959 -21.7516 -21.7453 -21.7121
   -21.7083 -21.6984 -21.6983 -21.6310 -21.6296 -21.5883 -21.5858 -21.5206
   -21.4670 -21.4601 -21.4494 -21.4480 -21.4399 -21.4394 -21.4216 -21.4209
   -21.3575 -21.3305 -21.3295 -21.3254 -21.3240 -21.3070 -21.3044 -21.3025
   -21.2968 -21.2613 -21.2605 -21.1468 -21.1441 -21.0822 -21.0807 -21.0501
   -21.0487 -20.9949 -20.9853 -20.9848 -20.9703 -20.9692 -20.9590 -20.9589
   -20.9429 -20.9368 -20.8949 -20.8934 -20.8748 -20.8746 -20.8111 -20.8108
   -20.7997 -20.7926 -20.7898 -20.7486 -20.7425 -20.7093 -20.7083 -20.6437
   -20.6434 -20.6020 -20.5991 -20.5625 -20.5615 -20.5518 -20.5504 -20.5404
   -20.5403 -20.4564 -20.4560 -20.4329 -20.4328 -20.3919 -20.3678 -20.3664
   -20.3597 -20.3595 -20.3429 -20.3368 -20.3050 -20.3046 -20.3039 -20.3037
   -20.2381 -20.2370 -20.2034 -20.2010 -20.1858 -20.1710 -20.1707 -20.1611
   -20.1609 -20.1377 -20.1317 -20.0749 -20.0746 -20.0654 -20.0645 -20.0031
   -20.0005 -19.9859 -19.9845 -19.8987 -19.8984 -19.8856 -19.8850 -19.8785
   -19.8784 -19.8733 -19.8733 -19.8251 -19.8249 -19.7950 -19.7931 -19.7911
   -19.7854 -19.7853 -19.7684 -19.7682 -19.7460 -19.7400 -19.7296 -19.7293
   -19.7117 -19.7108 -19.6836 -19.6835 -19.6245 -19.6242 -19.6222 -19.6189
   -19.6153 -19.5719 -19.5661 -19.5401 -19.5397 -19.5362 -19.5353 -19.4946
   -19.4944 -19.4532 -19.4502 -19.4346 -19.4329 -19.4310 -19.4305 -19.4229
   -19.4229 -19.4190 -19.4190 -19.3718 -19.3712 -19.3553 -19.3552 -19.3505
   -19.3370 -19.3368 -19.3233 -19.3231 -19.3091 -19.3022 -19.3000 -19.2996
   -19.2909 -19.2908 -19.2793 -19.2776 -19.2753 -19.2752 -19.2728 -19.2704
   -19.2688 -19.2556 -19.2555 -19.2423 -19.2423 -19.2333 -19.2294 -19.2294
   -19.2289 -19.2105 -19.2092 -19.1958 -19.1957 -19.1953 -19.1941 -19.1259
   -19.1241 -19.1233 -19.1232 -19.0963 -19.0960 -19.0753 -19.0752 -19.0670
   -19.0661 -19.0351 -19.0341 -19.0138 -19.0135 -19.0035 -19.0034 -18.9856
   -18.9854 -18.9683 -18.9675 -18.9548 -18.9546 -18.9406 -18.9406 -18.9096
   -18.9095 -18.8940 -18.8937 -18.8579 -18.8570 -18.8374 -18.8373 -18.8003
   -18.7995 -18.7445 -18.7443 -18.7250 -18.7250 -18.7121 -18.7121 -18.6834
   -18.6833 -13.5404 -13.5403 -13.5185 -13.4934 -13.4934 -13.4708 -13.4633
   -13.4299 -13.4299 -13.4070 -13.4070 -13.3990 -13.3931 -13.3931 -13.3557
   -13.3493 -13.3390 -13.3390 -13.3342 -13.3327 -13.3192 -13.3191 -13.2600
   -13.2600 -13.2273 -13.2247 -13.1968 -13.1967 -13.1509 -13.1508 -13.1437
   -13.1437 -13.1210 -13.1195 -13.1002 -13.1002 -13.0903 -13.0903 -13.0321
   -13.0320 -13.0256 -13.0244 -13.0158 -13.0157 -12.9873 -12.9872 -12.9656
   -12.9576 -12.9575 -12.9257 -12.9207 -12.8978 -12.8978 -12.8935 -12.8934
   -12.8649 -12.8649 -12.8459 -12.8444 -12.8217 -12.8197 -12.7852 -12.7842
   -12.7648 -12.7646 -12.7422 -12.7422 -12.7269 -12.7268 -12.6957 -12.6956
   -12.6933 -12.6929 -12.6841 -12.6838 -12.6744 -12.6737 -12.6696 -12.6696
   -12.6660 -12.6467 -12.6466 -12.6445 -12.6445 -12.6421 -12.6420 -12.6298
   -12.6254 -12.6124 -12.6123 -12.5961 -12.5961 -12.5658 -12.5651 -12.5436
   -12.5414 -12.5175 -12.5175 -12.4906 -12.4906 -12.4393 -12.4382 -12.4195
   -12.4191 -12.4121 -12.4119 -12.3217 -12.3217 -12.3041 -12.3039 -12.2937
   -12.2937 -12.1523 -12.1523 -12.1305 -12.1304 -12.1296 -12.1295 -12.0944
   -12.0937 -11.9499 -11.9314 -11.9313 -11.9199 -11.9177 -11.9148 -11.9142
   -11.8847 -11.8826 -11.8687 -11.8686 -11.8596 -11.8178 -11.8175 -11.7903
   -11.7901 -11.7317 -11.7314 -11.6790 -11.6789 -11.6286 -11.6285 -11.6127
   -11.6126 -11.6003 -11.6002 -11.5782 -11.5753 -11.5451 -11.5326 -11.5324
   -11.5205 -11.5196 -11.5157 -11.5156 -11.5028 -11.5025 -11.4471 -11.4470
   -11.3303 -11.3302 -11.3111 -11.3110 -11.2164 -11.2163 -11.2060 -11.2051
   -11.1794 -11.1794 -11.1467 -11.1460 -11.1156 -11.1154 -10.9988 -10.9987
   -10.9691 -10.9690 -10.9635 -10.9634 -10.9608 -10.9600 -10.9596 -10.9596
   -10.9179 -10.9176 -10.9169 -10.9166 -10.9035 -10.9035 -10.8478 -10.8477
   -10.7457 -10.7452 -10.7296 -10.7243 -10.6837 -10.6836 -10.6816 -10.6815
   -10.6809 -10.6670 -10.6575 -10.6563 -10.6557 -10.5590 -10.5589 -10.5222
   -10.5221 -10.4903 -10.4902 -10.4107 -10.4092 -10.3728 -10.3720 -10.3631
   -10.3630 -10.3482 -10.3480 -10.3364 -10.3363 -10.3294 -10.3256 -10.2967
   -10.2965 -10.2639 -10.2638 -10.2381 -10.2321 -10.2312 -10.2254 -10.2196
   -10.2194 -10.2068 -10.1257 -10.1248 -10.1009 -10.1008 -10.0722 -10.0720
   -10.0390 -10.0389 -10.0216 -10.0215  -9.9942  -9.9941  -9.9856  -9.9854
    -9.9720  -9.9719  -9.9079  -9.8828  -9.8827  -9.8660  -9.8356  -9.8347
    -9.8273  -9.8159  -9.8126  -9.8124  -9.7940  -9.7938  -9.7910  -9.7909
    -9.7889  -9.7816  -9.7521  -9.7520  -9.7458  -9.7457  -9.7303  -9.6848
    -9.6847  -9.6583  -9.6521  -9.6512  -9.6476  -9.6310  -9.6163  -9.6122
    -9.5976  -9.5923  -9.5830  -9.5812  -9.5650  -9.5584  -9.5504  -9.5464
    -9.5451  -9.5424  -9.5269  -9.5266  -9.5028  -9.5027  -9.4690  -9.4663
    -9.4523  -9.4519  -9.4312  -9.4252  -9.4197  -9.4196  -9.3825  -9.3798
    -9.3640  -9.3639  -9.3636  -9.3460  -9.3352  -9.3318  -9.3316  -9.3316
    -9.3261  -9.3130  -9.3126  -9.2908  -9.2905  -9.2820  -9.2759  -9.2758
    -9.2501  -9.2498  -9.2256  -9.2210  -9.2105  -9.2099  -9.1998  -9.1920
    -9.1919  -9.1874  -9.1862  -9.1708  -9.1682  -9.1552  -9.1551  -9.1537
    -9.1511  -9.1503  -9.1503  -9.1312  -9.1311  -9.1266  -9.1180  -9.0872
    -9.0872  -9.0730  -9.0655  -9.0550  -9.0545  -9.0544  -9.0542  -9.0422
    -9.0421  -9.0242  -9.0127  -9.0108  -9.0099  -8.9910  -8.9908  -8.9884
    -8.9824  -8.9679  -8.9678  -8.9634  -8.9604  -8.9598  -8.9595  -8.9568
    -8.9568  -8.9296  -8.9295  -8.9073  -8.9053  -8.9009  -8.8994  -8.8994
    -8.8974  -8.8879  -8.8879  -8.8831  -8.8743  -8.8512  -8.8507  -8.8359
    -8.8223  -8.8223  -8.8112  -8.8040  -8.7939  -8.7934  -8.7933  -8.7882
    -8.7595  -8.7413  -8.7367  -8.7366  -8.7304  -8.7284  -8.7283  -8.7168
    -8.7119  -8.7091  -8.7091  -8.7027  -8.7015  -8.6791  -8.6790  -8.6775
    -8.6771  -8.6763  -8.6749  -8.6548  -8.6309  -8.6307  -8.6145  -8.6144
    -8.5905  -8.5893  -8.5830  -8.5758  -8.5685  -8.5681  -8.5560  -8.5559
    -8.5559  -8.5517  -8.5471  -8.5435  -8.5225  -8.5177  -8.5158  -8.5081
    -8.5058  -8.5055  -8.4876  -8.4839  -8.4761  -8.4749  -8.4680  -8.4679
    -8.4605  -8.4600  -8.4575  -8.4538  -8.4513  -8.4512  -8.4271  -8.4269
    -8.4152  -8.4152  -8.3684  -8.3081  -8.3075  -8.3056  -8.3053  -8.3046
    -8.2984  -8.2865  -8.2860  -8.2450  -8.2448  -8.2420  -8.2179  -8.2104
    -8.1732  -8.1677  -8.1635  -8.1630  -8.1627  -8.1543  -8.1453  -8.1451
    -8.1427  -8.1426  -8.1033  -8.1030  -8.1012  -8.0858  -8.0783  -8.0745
    -8.0701  -8.0700  -8.0654  -8.0633  -8.0606  -8.0587  -8.0573  -8.0552
    -8.0552  -8.0466  -8.0450  -8.0251  -8.0140  -7.9943  -7.9858  -7.9703
    -7.9624  -7.9539  -7.9491  -7.9397  -7.9360  -7.9344  -7.9274  -7.8972
    -7.8794  -7.8788  -7.8390  -7.8339  -7.8335  -7.8316  -7.8289  -7.8281
    -7.8191  -7.8108  -7.8038  -7.7853  -7.7497  -7.7455  -7.7249  -7.7240
    -7.6970  -7.6945  -7.6911  -7.6836  -7.6405  -7.6402  -7.6288  -7.6208
    -7.6126  -7.6125  -7.6064  -7.6046  -7.5896  -7.5883  -7.5592  -7.5583
    -7.5566  -7.5481  -7.5461  -7.5443  -7.5438  -7.5214  -7.5208  -7.4926
    -7.4921  -7.4792  -7.4788  -7.4630  -7.4620  -7.4380  -7.4334  -7.4300
    -7.4262  -7.4261  -7.3804  -7.3795  -7.3703  -7.3698  -7.3457  -7.3440
    -7.3155  -7.3149  -7.2508  -7.2494  -7.2229  -7.2215  -7.2106  -7.2097
    -7.1853  -7.1783  -7.1503  -7.1501  -7.1323  -7.1319  -7.1300  -7.1296
    -7.1169  -7.1161  -7.0495  -7.0408  -7.0396  -7.0389  -7.0305  -7.0284
    -7.0237  -7.0227  -7.0209  -7.0187  -6.9903  -6.9873  -6.9588  -6.9565
    -6.9547  -6.9447  -6.9446  -6.9417  -6.9416  -6.9273  -6.9269  -6.9216
    -6.9191  -6.8944  -6.8873  -6.8804  -6.8592  -6.8521  -6.8428  -6.8035
    -6.8032  -6.7952  -6.7945  -6.7752  -6.7750  -6.7574  -6.7535  -6.7046
    -6.7027  -6.7014  -6.6822  -6.6805  -6.6370  -6.6358  -6.5556  -6.5544
    -6.5505  -6.5317  -6.5316  -6.5291  -6.5290  -6.5153  -6.5148  -6.5148
    -6.5099  -6.4764  -6.4736  -6.4486  -6.4482  -6.4451  -6.4433  -6.4066
    -6.4046  -6.3892  -6.3891  -6.3877  -6.3856  -6.3732  -6.3715  -6.3682
    -6.3660  -6.3589  -6.3587  -6.3275  -6.3199  -6.3090  -6.3089  -6.2865
    -6.2858  -6.2726  -6.2655  -6.2472  -6.2364  -6.2357  -6.1724  -6.1668
    -6.1489  -6.1471  -6.1458  -6.1448  -6.1348  -6.1282  -6.1203  -6.1168
    -6.0688  -6.0613  -6.0573  -6.0292  -6.0291  -6.0250  -6.0224  -6.0211
    -6.0057  -5.9538  -5.9490  -5.9082  -5.8957  -5.8912  -5.8730  -5.8691
    -5.8582  -5.8563  -5.8518  -5.8441  -5.8407  -5.8406  -5.7775  -5.7722
    -5.7595  -5.7588  -5.7252  -5.7235  -5.7221  -5.7004  -5.6989  -5.6660
    -5.6573  -5.6502  -5.6469  -5.6424  -5.6422  -5.6367  -5.6353  -5.6277
    -5.6265  -5.6176  -5.6169  -5.6028  -5.5798  -5.5788  -5.5619  -5.5617
    -5.5489  -5.5454  -5.5452  -5.5422  -5.5355  -5.5344  -5.5034  -5.5028
    -5.4990  -5.4969  -5.3879  -5.3850  -5.3823  -5.3819  -5.3450  -5.3441
    -5.3149  -5.3139  -5.3119  -5.3117  -5.2548  -5.2531  -5.2207  -5.2198
    -5.2096  -5.2094  -5.1764  -5.1758  -5.1478  -5.1464  -5.1326  -5.1320
    -5.1163  -5.1162  -5.0570  -5.0567  -5.0370  -5.0365  -4.9768  -4.9758
    -4.9416  -4.9413  -4.8819  -4.8810  -4.7856  -4.7849  -4.7633  -4.7631
    -4.7381  -4.7379  -4.6917  -4.6914  -0.1699  -0.1116  -0.0660  -0.0404
    -0.0132   0.0024   0.0528   0.0628   0.0664   0.0968   0.0987   0.1130
     0.1142   0.1323   0.1345   0.1418   0.1618   0.1625   0.1664   0.1706
     0.1748

          k = 0.3333 0.0000 0.0000 (****** PWs)   bands (ev):

   -24.0799 -22.3366 -22.3041 -22.2599 -22.2502 -22.2297 -22.2275 -22.2266
   -22.1746 -22.1571 -22.1535 -22.1019 -22.0979 -22.0328 -22.0302 -22.0247
   -22.0044 -22.0041 -21.9549 -21.9507 -21.9349 -21.9323 -21.9316 -21.8801
   -21.8793 -21.8603 -21.8574 -21.7351 -21.7338 -21.7156 -21.6672 -21.6668
   -21.6456 -21.6446 -21.6442 -21.6410 -21.6391 -21.6390 -21.5905 -21.5715
   -21.5713 -21.5213 -21.5189 -21.5170 -21.5157 -21.4319 -21.4314 -21.3774
   -21.3772 -21.3112 -21.3105 -21.3090 -21.2897 -21.2896 -21.2411 -21.2373
   -21.1777 -21.1773 -21.1544 -21.1518 -21.1517 -21.0902 -21.0897 -21.0877
   -21.0840 -21.0830 -21.0829 -21.0374 -21.0371 -21.0351 -21.0350 -20.9702
   -20.9701 -20.9014 -20.9012 -20.8893 -20.8889 -20.8206 -20.8191 -20.8189
   -20.7581 -20.7543 -20.7124 -20.7123 -20.6436 -20.6274 -20.6271 -20.5946
   -20.5941 -20.5842 -20.5805 -20.5731 -20.5727 -20.5723 -20.5720 -20.5691
   -20.5691 -20.5185 -20.5183 -20.5077 -20.5076 -20.4602 -20.4601 -20.4068
   -20.4064 -20.3368 -20.3365 -20.2868 -20.2863 -20.2766 -20.2754 -20.2745
   -20.2611 -20.2609 -20.2226 -20.2192 -20.1582 -20.1579 -20.1285 -20.1283
   -20.0888 -20.0868 -20.0867 -20.0688 -20.0684 -20.0398 -20.0365 -19.9912
   -19.9906 -19.9805 -19.9791 -19.9562 -19.9555 -19.9033 -19.9026 -19.9004
   -19.9002 -19.8999 -19.8996 -19.8578 -19.8571 -19.8324 -19.8322 -19.7852
   -19.7850 -19.7758 -19.7757 -19.7467 -19.7460 -19.7180 -19.6921 -19.6919
   -19.6839 -19.6828 -19.6801 -19.6778 -19.6766 -19.6764 -19.5822 -19.5819
   -19.5444 -19.5436 -19.5398 -19.5303 -19.5295 -19.5097 -19.5076 -19.4782
   -19.4778 -19.4707 -19.4576 -19.4508 -19.4501 -19.4466 -19.4464 -19.4400
   -19.4400 -19.4397 -19.4382 -19.4363 -19.4362 -19.3926 -19.3880 -19.3868
   -19.3866 -19.3548 -19.3500 -19.3437 -19.3435 -19.2990 -19.2988 -19.2863
   -19.2850 -19.2599 -19.2573 -19.2572 -19.2529 -19.2437 -19.2428 -19.2428
   -19.2261 -19.2235 -19.2168 -19.2104 -19.2070 -19.2061 -19.2012 -19.1989
   -19.1985 -19.1956 -19.1934 -19.1933 -19.1907 -19.1904 -19.1781 -19.1776
   -19.1773 -19.1420 -19.1103 -19.1072 -19.0845 -19.0762 -19.0758 -19.0708
   -19.0707 -19.0695 -19.0607 -19.0512 -19.0306 -19.0282 -19.0142 -19.0073
   -18.9987 -18.9984 -18.9977 -18.9856 -18.9853 -18.8987 -18.8875 -18.8853
   -18.8837 -18.8774 -18.8469 -18.8371 -18.8361 -18.8296 -18.8228 -18.8163
   -18.7762 -18.7712 -18.7675 -18.7643 -18.7575 -18.7330 -18.6973 -18.6698
   -18.6608 -13.5542 -13.5324 -13.5323 -13.5280 -13.4766 -13.4765 -13.4711
   -13.4677 -13.4676 -13.4541 -13.4541 -13.4264 -13.3427 -13.3425 -13.3258
   -13.3257 -13.3083 -13.2373 -13.2362 -13.2346 -13.2318 -13.2309 -13.2141
   -13.2135 -13.2132 -13.2062 -13.1935 -13.1933 -13.1883 -13.1883 -13.1877
   -13.1865 -13.1736 -13.1732 -13.1593 -13.1587 -13.1393 -13.1357 -13.1004
   -13.0968 -13.0627 -13.0021 -13.0020 -12.9996 -12.9963 -12.9681 -12.9568
   -12.9554 -12.9386 -12.9364 -12.9114 -12.9107 -12.9080 -12.9062 -12.9016
   -12.8997 -12.8603 -12.8603 -12.8161 -12.8143 -12.8122 -12.8109 -12.8078
   -12.8066 -12.8052 -12.8048 -12.8045 -12.8018 -12.7629 -12.7472 -12.7428
   -12.7346 -12.7325 -12.7269 -12.7256 -12.7029 -12.6992 -12.6714 -12.6553
   -12.6517 -12.6504 -12.6477 -12.6454 -12.6453 -12.6446 -12.6436 -12.5918
   -12.5777 -12.5776 -12.5733 -12.5381 -12.5380 -12.5276 -12.4993 -12.4989
   -12.4133 -12.3865 -12.3828 -12.3664 -12.3660 -12.3244 -12.3233 -12.3018
   -12.3011 -12.2739 -12.2736 -12.2726 -12.2722 -12.2718 -12.2716 -12.2501
   -12.2498 -12.2036 -12.2033 -12.2013 -12.2009 -12.1815 -12.1786 -12.1784
   -12.1773 -12.1757 -12.1752 -12.1689 -12.1683 -12.0834 -12.0368 -12.0368
   -12.0096 -12.0088 -11.9459 -11.9457 -11.8742 -11.8605 -11.8252 -11.7830
   -11.7387 -11.7386 -11.7036 -11.7035 -11.6936 -11.6898 -11.6457 -11.5354
   -11.5354 -11.5286 -11.4545 -11.4233 -11.4225 -11.4175 -11.4136 -11.4110
   -11.4109 -11.3991 -11.3971 -11.3803 -11.3801 -11.3800 -11.3648 -11.3586
   -11.3544 -11.3278 -11.3270 -11.2350 -11.2314 -11.1928 -11.1927 -11.1488
   -11.1486 -11.1227 -11.1224 -11.1079 -11.1066 -11.1064 -11.1060 -11.1058
   -11.1057 -11.1011 -11.0985 -11.0985 -11.0959 -11.0959 -11.0896 -11.0864
   -10.9691 -10.9679 -10.9345 -10.9312 -10.8427 -10.8427 -10.8299 -10.8258
   -10.8130 -10.8090 -10.7798 -10.7797 -10.7580 -10.6979 -10.6514 -10.6510
   -10.6243 -10.6238 -10.5861 -10.5860 -10.5823 -10.5809 -10.5780 -10.5760
   -10.5743 -10.5742 -10.4976 -10.4966 -10.4963 -10.4902 -10.4863 -10.4412
   -10.4406 -10.3986 -10.3981 -10.3861 -10.3826 -10.3096 -10.2752 -10.2749
   -10.2124 -10.2119 -10.1760 -10.1759 -10.1753 -10.1450 -10.1438 -10.1435
   -10.1276 -10.1276 -10.0986 -10.0980 -10.0743 -10.0490 -10.0449 -10.0335
   -10.0334  -9.9735  -9.9699  -9.9112  -9.8765  -9.8731  -9.8617  -9.8615
    -9.8528  -9.8526  -9.8175  -9.8172  -9.8162  -9.8123  -9.8121  -9.8121
    -9.8113  -9.7971  -9.7866  -9.7824  -9.7738  -9.7695  -9.7691  -9.7686
    -9.7685  -9.7667  -9.7665  -9.7597  -9.7596  -9.7568  -9.7538  -9.7529
    -9.7528  -9.7506  -9.7506  -9.6978  -9.6964  -9.6962  -9.6878  -9.6877
    -9.6743  -9.6708  -9.6708  -9.6689  -9.6075  -9.6075  -9.6000  -9.5938
    -9.5878  -9.5875  -9.5873  -9.5125  -9.5120  -9.5068  -9.5033  -9.4992
    -9.4944  -9.4701  -9.4694  -9.4687  -9.4662  -9.4552  -9.4551  -9.4095
    -9.4089  -9.4016  -9.3947  -9.3922  -9.3744  -9.3711  -9.3710  -9.3704
    -9.3699  -9.3690  -9.3689  -9.3382  -9.3100  -9.3086  -9.3067  -9.3042
    -9.3006  -9.2976  -9.2739  -9.2696  -9.2626  -9.2624  -9.2452  -9.2451
    -9.2023  -9.2022  -9.1904  -9.1891  -9.1891  -9.1588  -9.1085  -9.1049
    -9.1041  -9.1007  -9.0965  -9.0964  -9.0825  -9.0791  -9.0770  -9.0710
    -9.0703  -9.0610  -9.0609  -9.0562  -9.0558  -9.0117  -9.0077  -9.0076
    -9.0074  -8.9845  -8.9803  -8.9796  -8.9761  -8.9745  -8.9744  -8.9134
    -8.9133  -8.9074  -8.9024  -8.8824  -8.8812  -8.8800  -8.8796  -8.8758
    -8.8755  -8.8627  -8.8619  -8.8615  -8.8612  -8.8566  -8.8565  -8.8502
    -8.8501  -8.8332  -8.8330  -8.8325  -8.8284  -8.8207  -8.8206  -8.8192
    -8.8192  -8.8169  -8.8153  -8.8152  -8.8151  -8.8150  -8.8096  -8.8075
    -8.8060  -8.8018  -8.8018  -8.7920  -8.7919  -8.7737  -8.7699  -8.7688
    -8.7687  -8.7429  -8.7402  -8.6930  -8.6924  -8.6923  -8.6898  -8.6615
    -8.6614  -8.6514  -8.6512  -8.6430  -8.6429  -8.6243  -8.6212  -8.6188
    -8.6171  -8.5814  -8.5811  -8.5799  -8.5784  -8.5784  -8.5596  -8.5596
    -8.5518  -8.5517  -8.5302  -8.5245  -8.5233  -8.5052  -8.5050  -8.4990
    -8.4979  -8.4684  -8.4683  -8.4663  -8.4389  -8.4388  -8.4334  -8.4313
    -8.4310  -8.4300  -8.4266  -8.4265  -8.4262  -8.4260  -8.4053  -8.4052
    -8.3987  -8.3986  -8.3968  -8.3938  -8.3591  -8.3589  -8.3455  -8.3406
    -8.3326  -8.3326  -8.3142  -8.3102  -8.3100  -8.2323  -8.2227  -8.2208
    -8.2162  -8.2151  -8.2151  -8.2004  -8.2002  -8.1993  -8.1990  -8.1988
    -8.1986  -8.1571  -8.1509  -8.1493  -8.1487  -8.1374  -8.1368  -8.1362
    -8.1358  -8.1263  -8.1262  -8.1241  -8.1100  -8.1099  -8.0804  -8.0648
    -8.0587  -8.0143  -8.0142  -7.9827  -7.9649  -7.9547  -7.9529  -7.9528
    -7.9522  -7.9491  -7.9480  -7.9480  -7.9465  -7.9103  -7.8924  -7.8921
    -7.8519  -7.8514  -7.8378  -7.8374  -7.8017  -7.8016  -7.7713  -7.7682
    -7.7618  -7.7616  -7.7524  -7.7516  -7.7343  -7.7325  -7.7093  -7.7092
    -7.7044  -7.7043  -7.7021  -7.6988  -7.6502  -7.6499  -7.6354  -7.6353
    -7.6060  -7.5856  -7.5831  -7.5348  -7.5315  -7.5227  -7.5201  -7.5083
    -7.5079  -7.5067  -7.5049  -7.5045  -7.5035  -7.4865  -7.4863  -7.4783
    -7.4781  -7.4722  -7.4714  -7.4692  -7.4629  -7.4606  -7.4340  -7.4326
    -7.4181  -7.4169  -7.3744  -7.3650  -7.3648  -7.3533  -7.3532  -7.3520
    -7.3510  -7.3318  -7.3301  -7.2749  -7.2747  -7.2489  -7.2485  -7.1966
    -7.1961  -7.1794  -7.1783  -7.1659  -7.1606  -7.1479  -7.1477  -7.1435
    -7.1434  -7.1431  -7.1420  -7.1049  -7.1040  -7.0938  -7.0920  -7.0911
    -7.0842  -7.0840  -7.0732  -7.0723  -7.0448  -7.0445  -7.0179  -7.0138
    -6.9295  -6.9276  -6.9245  -6.9238  -6.8806  -6.8805  -6.8555  -6.8554
    -6.8284  -6.8269  -6.8260  -6.8127  -6.8088  -6.7965  -6.7957  -6.7637
    -6.7633  -6.7615  -6.7585  -6.7542  -6.7117  -6.7112  -6.6896  -6.6887
    -6.6668  -6.6642  -6.6639  -6.6618  -6.6350  -6.6346  -6.6304  -6.6037
    -6.6034  -6.5900  -6.5578  -6.5569  -6.5543  -6.5540  -6.5536  -6.5533
    -6.5523  -6.5520  -6.4938  -6.4928  -6.4526  -6.4522  -6.4285  -6.4236
    -6.4130  -6.4101  -6.4076  -6.3926  -6.3922  -6.3713  -6.3713  -6.3416
    -6.3354  -6.3347  -6.3337  -6.3274  -6.3259  -6.3030  -6.2946  -6.2473
    -6.2466  -6.2420  -6.2407  -6.2390  -6.2357  -6.2345  -6.2344  -6.1957
    -6.1938  -6.1901  -6.1543  -6.1510  -6.0984  -6.0892  -6.0870  -6.0420
    -6.0356  -6.0257  -6.0251  -6.0188  -6.0180  -6.0161  -6.0007  -5.9899
    -5.9843  -5.9394  -5.9362  -5.9122  -5.9054  -5.8975  -5.8951  -5.8907
    -5.8771  -5.8704  -5.8697  -5.8695  -5.8680  -5.8677  -5.8674  -5.8569
    -5.7981  -5.7963  -5.7949  -5.7927  -5.7419  -5.7369  -5.7185  -5.7170
    -5.6536  -5.6517  -5.6455  -5.6445  -5.5996  -5.5934  -5.5830  -5.5818
    -5.5704  -5.5701  -5.5592  -5.5438  -5.5347  -5.5327  -5.5313  -5.5223
    -5.5209  -5.5129  -5.5125  -5.5114  -5.5079  -5.4966  -5.4964  -5.4932
    -5.4931  -5.4638  -5.4630  -5.4626  -5.4101  -5.3637  -5.3612  -5.3318
    -5.3236  -5.3224  -5.3181  -5.3176  -5.3165  -5.3079  -5.2743  -5.2462
    -5.2441  -5.2250  -5.2193  -5.1947  -5.1940  -5.1935  -5.1741  -5.1736
    -5.0378  -5.0290  -5.0187  -5.0146  -5.0076  -4.9564  -4.9470  -4.9458
    -4.9312  -4.9138  -4.9075  -4.8432  -4.8378  -4.8285  -4.8246  -4.8159
    -4.7720  -4.7112  -4.6684  -4.6521  -0.1735  -0.1198  -0.0519  -0.0151
     0.0048   0.0177   0.0200   0.0350   0.0445   0.0771   0.0971   0.1049
     0.1273   0.1359   0.1406   0.1408   0.1450   0.1493   0.1616   0.1640
     0.1721

          k = 0.3333 0.3849 0.0000 (****** PWs)   bands (ev):

   -24.0799 -22.3313 -22.2982 -22.2898 -22.2690 -22.2250 -22.1972 -22.1941
   -22.1722 -22.1640 -22.1410 -22.1199 -22.0978 -22.0946 -22.0424 -22.0254
   -22.0175 -21.9910 -21.9687 -21.9284 -21.9235 -21.8995 -21.8981 -21.8945
   -21.8274 -21.8233 -21.8045 -21.8019 -21.7767 -21.7725 -21.7316 -21.7096
   -21.7063 -21.6818 -21.6528 -21.6302 -21.5874 -21.5838 -21.5567 -21.5413
   -21.5201 -21.5157 -21.5079 -21.4903 -21.4637 -21.4239 -21.4223 -21.3933
   -21.3697 -21.3528 -21.3308 -21.3270 -21.3023 -21.2761 -21.2602 -21.2310
   -21.2153 -21.2105 -21.2082 -21.1865 -21.1481 -21.1451 -21.1220 -21.1192
   -21.0967 -21.0718 -21.0345 -20.9916 -20.9880 -20.9687 -20.9658 -20.9491
   -20.9381 -20.9010 -20.8520 -20.8345 -20.8309 -20.8144 -20.7975 -20.7956
   -20.7900 -20.7891 -20.7709 -20.7206 -20.7081 -20.7077 -20.6930 -20.6780
   -20.6586 -20.6467 -20.6404 -20.6378 -20.6137 -20.5794 -20.5359 -20.5316
   -20.4860 -20.4773 -20.4537 -20.4534 -20.4441 -20.4359 -20.3886 -20.3876
   -20.3638 -20.3484 -20.3243 -20.3052 -20.3039 -20.2729 -20.2711 -20.2579
   -20.2488 -20.2316 -20.1830 -20.1811 -20.1713 -20.1619 -20.1575 -20.1385
   -20.1299 -20.1204 -20.1000 -20.0845 -20.0655 -20.0633 -20.0554 -20.0352
   -20.0200 -20.0016 -20.0006 -19.9980 -19.9560 -19.9555 -19.9392 -19.9188
   -19.9003 -19.8984 -19.8705 -19.8418 -19.8379 -19.8072 -19.7882 -19.7683
   -19.7640 -19.7631 -19.7389 -19.7154 -19.7118 -19.7105 -19.6969 -19.6697
   -19.6531 -19.6493 -19.6435 -19.6256 -19.6203 -19.6194 -19.6146 -19.6125
   -19.6105 -19.5891 -19.5634 -19.5400 -19.5388 -19.5376 -19.5298 -19.5213
   -19.5185 -19.5147 -19.5003 -19.4979 -19.4921 -19.4892 -19.4652 -19.4466
   -19.4424 -19.4072 -19.3975 -19.3938 -19.3749 -19.3627 -19.3606 -19.3593
   -19.3482 -19.3471 -19.3372 -19.3369 -19.3365 -19.3235 -19.3107 -19.2884
   -19.2849 -19.2791 -19.2744 -19.2671 -19.2607 -19.2512 -19.2502 -19.2380
   -19.2368 -19.2220 -19.2173 -19.2135 -19.2079 -19.2058 -19.2014 -19.2000
   -19.1990 -19.1983 -19.1915 -19.1911 -19.1674 -19.1591 -19.1468 -19.1416
   -19.1406 -19.1339 -19.1333 -19.1268 -19.1239 -19.0941 -19.0922 -19.0840
   -19.0764 -19.0701 -19.0665 -19.0621 -19.0607 -19.0582 -19.0238 -19.0018
   -18.9749 -18.9585 -18.9544 -18.9438 -18.9234 -18.9174 -18.9141 -18.9110
   -18.9105 -18.8684 -18.8605 -18.8530 -18.8511 -18.8423 -18.8344 -18.8072
   -18.7868 -18.7653 -18.7627 -18.7509 -18.7176 -18.7115 -18.7094 -18.6805
   -18.6732 -13.5413 -13.5238 -13.5159 -13.4980 -13.4976 -13.4888 -13.4816
   -13.4337 -13.4217 -13.4170 -13.3989 -13.3979 -13.3879 -13.3865 -13.3720
   -13.3359 -13.3338 -13.3251 -13.3192 -13.3062 -13.2985 -13.2819 -13.2771
   -13.2713 -13.2682 -13.2319 -13.2181 -13.2059 -13.2000 -13.1698 -13.1665
   -13.1450 -13.1127 -13.0993 -13.0985 -13.0935 -13.0870 -13.0657 -13.0544
   -13.0340 -13.0333 -13.0152 -13.0139 -12.9641 -12.9611 -12.9551 -12.9519
   -12.9459 -12.9418 -12.9390 -12.9331 -12.9164 -12.8980 -12.8962 -12.8813
   -12.8787 -12.8645 -12.8611 -12.8583 -12.8123 -12.7914 -12.7865 -12.7857
   -12.7761 -12.7756 -12.7748 -12.7504 -12.7396 -12.7349 -12.7259 -12.7248
   -12.7150 -12.7126 -12.6928 -12.6868 -12.6715 -12.6703 -12.6681 -12.6651
   -12.6642 -12.6586 -12.6463 -12.6423 -12.6289 -12.6277 -12.6159 -12.6048
   -12.6025 -12.5858 -12.5762 -12.5723 -12.5683 -12.5670 -12.5597 -12.5552
   -12.5429 -12.5409 -12.5066 -12.4777 -12.4693 -12.4651 -12.4529 -12.4179
   -12.4116 -12.4098 -12.4030 -12.4000 -12.3877 -12.3572 -12.3044 -12.2396
   -12.2329 -12.2201 -12.2092 -12.1236 -12.1101 -12.0993 -12.0746 -12.0370
   -12.0246 -11.9853 -11.9494 -11.9314 -11.9262 -11.9169 -11.9142 -11.9042
   -11.8919 -11.8788 -11.8768 -11.8645 -11.8619 -11.8583 -11.8404 -11.8049
   -11.7792 -11.7663 -11.7620 -11.7192 -11.6501 -11.6347 -11.6120 -11.6118
   -11.6038 -11.6002 -11.5553 -11.5493 -11.5349 -11.5329 -11.5323 -11.5229
   -11.5171 -11.5157 -11.5110 -11.5051 -11.5045 -11.4680 -11.4292 -11.4209
   -11.3545 -11.3228 -11.3161 -11.3081 -11.3066 -11.3003 -11.2552 -11.2098
   -11.2094 -11.1570 -11.1479 -11.1470 -11.1427 -11.1129 -11.0758 -11.0704
   -11.0669 -11.0026 -10.9985 -10.9531 -10.9194 -10.9180 -10.9037 -10.8899
   -10.8885 -10.8762 -10.8570 -10.8486 -10.8479 -10.8323 -10.7900 -10.7768
   -10.7738 -10.7181 -10.7099 -10.7009 -10.6852 -10.6836 -10.6829 -10.6807
   -10.6676 -10.6656 -10.6574 -10.6497 -10.6436 -10.6068 -10.5754 -10.5738
   -10.5580 -10.5549 -10.5376 -10.5083 -10.4848 -10.4170 -10.4006 -10.3685
   -10.3638 -10.3629 -10.3557 -10.3469 -10.3279 -10.3266 -10.3257 -10.2804
   -10.2758 -10.2648 -10.2505 -10.2217 -10.2194 -10.2152 -10.2070 -10.1986
   -10.1884 -10.1633 -10.1438 -10.1346 -10.1006 -10.0999 -10.0693 -10.0671
   -10.0632 -10.0323 -10.0321 -10.0074  -9.9919  -9.9717  -9.9713  -9.9519
    -9.9318  -9.9152  -9.9032  -9.8978  -9.8872  -9.8745  -9.8742  -9.8729
    -9.8670  -9.8648  -9.8528  -9.8526  -9.8342  -9.8261  -9.8227  -9.7740
    -9.7649  -9.7290  -9.7219  -9.7162  -9.7139  -9.6946  -9.6838  -9.6770
    -9.6613  -9.6537  -9.6523  -9.6461  -9.6232  -9.6222  -9.6137  -9.6133
    -9.6115  -9.5942  -9.5907  -9.5708  -9.5691  -9.5612  -9.5502  -9.5434
    -9.5423  -9.5194  -9.4960  -9.4853  -9.4744  -9.4626  -9.4526  -9.4507
    -9.4494  -9.4487  -9.4477  -9.4196  -9.4062  -9.3886  -9.3845  -9.3839
    -9.3822  -9.3815  -9.3797  -9.3651  -9.3563  -9.3521  -9.3353  -9.3316
    -9.3282  -9.3275  -9.3253  -9.3192  -9.3151  -9.3118  -9.3083  -9.3030
    -9.2935  -9.2715  -9.2412  -9.2314  -9.2294  -9.2227  -9.2161  -9.2094
    -9.1979  -9.1975  -9.1920  -9.1886  -9.1819  -9.1802  -9.1614  -9.1613
    -9.1584  -9.1556  -9.1547  -9.1523  -9.1518  -9.1506  -9.1141  -9.1086
    -9.0991  -9.0771  -9.0691  -9.0643  -9.0542  -9.0534  -9.0466  -9.0432
    -9.0424  -9.0336  -9.0321  -9.0215  -9.0046  -8.9983  -8.9923  -8.9668
    -8.9650  -8.9614  -8.9611  -8.9603  -8.9597  -8.9557  -8.9403  -8.9377
    -8.9132  -8.9041  -8.8977  -8.8939  -8.8907  -8.8714  -8.8671  -8.8634
    -8.8624  -8.8562  -8.8411  -8.8406  -8.8382  -8.8274  -8.8258  -8.8148
    -8.8114  -8.8065  -8.8040  -8.8035  -8.8013  -8.7961  -8.7916  -8.7857
    -8.7726  -8.7666  -8.7621  -8.7573  -8.7514  -8.7453  -8.7353  -8.7259
    -8.7153  -8.6991  -8.6948  -8.6869  -8.6813  -8.6794  -8.6787  -8.6770
    -8.6765  -8.6638  -8.6598  -8.6548  -8.6459  -8.6397  -8.6215  -8.6154
    -8.6142  -8.6131  -8.6125  -8.6074  -8.5994  -8.5989  -8.5942  -8.5819
    -8.5618  -8.5541  -8.5537  -8.5501  -8.5334  -8.5178  -8.5149  -8.5098
    -8.5047  -8.4860  -8.4846  -8.4835  -8.4805  -8.4680  -8.4670  -8.4580
    -8.4252  -8.4186  -8.4083  -8.3970  -8.3931  -8.3898  -8.3886  -8.3864
    -8.3572  -8.3491  -8.3444  -8.3420  -8.3305  -8.3218  -8.3078  -8.3077
    -8.3062  -8.3032  -8.2997  -8.2975  -8.2707  -8.2699  -8.2663  -8.2647
    -8.2615  -8.2469  -8.2341  -8.2337  -8.2089  -8.2017  -8.2007  -8.1976
    -8.1855  -8.1636  -8.1628  -8.1500  -8.1345  -8.0939  -8.0846  -8.0613
    -8.0601  -8.0596  -8.0552  -8.0521  -8.0456  -8.0340  -8.0166  -8.0107
    -8.0089  -7.9733  -7.9728  -7.9710  -7.9664  -7.9634  -7.9571  -7.9556
    -7.9501  -7.9382  -7.9067  -7.9008  -7.8922  -7.8857  -7.8800  -7.8789
    -7.8688  -7.8602  -7.8384  -7.8347  -7.8209  -7.8179  -7.8121  -7.8101
    -7.8088  -7.8029  -7.8000  -7.7978  -7.7836  -7.7796  -7.7573  -7.7205
    -7.7137  -7.7074  -7.7067  -7.6968  -7.6951  -7.6941  -7.6711  -7.6597
    -7.6558  -7.6282  -7.6209  -7.6134  -7.6129  -7.6104  -7.6028  -7.5967
    -7.5692  -7.5669  -7.5574  -7.5573  -7.5225  -7.5214  -7.5164  -7.5072
    -7.4687  -7.4569  -7.4548  -7.4516  -7.3948  -7.3858  -7.3744  -7.3735
    -7.3660  -7.3449  -7.3438  -7.3424  -7.3415  -7.3364  -7.3323  -7.3273
    -7.3162  -7.3079  -7.2705  -7.2623  -7.2504  -7.2481  -7.2448  -7.2442
    -7.2165  -7.2027  -7.1958  -7.1797  -7.1749  -7.1587  -7.1514  -7.1499
    -7.1379  -7.1325  -7.1313  -7.1311  -7.0897  -7.0853  -7.0668  -7.0567
    -7.0520  -7.0271  -6.9930  -6.9585  -6.9584  -6.9538  -6.9516  -6.9461
    -6.9278  -6.9243  -6.9225  -6.9202  -6.8996  -6.8986  -6.8846  -6.8815
    -6.8793  -6.8734  -6.8605  -6.8418  -6.8211  -6.7955  -6.7939  -6.7788
    -6.7781  -6.7765  -6.7706  -6.7613  -6.7523  -6.7472  -6.7237  -6.7209
    -6.7029  -6.7017  -6.6938  -6.6799  -6.6666  -6.6399  -6.6375  -6.6358
    -6.6179  -6.6144  -6.5944  -6.5914  -6.5786  -6.5716  -6.5575  -6.5516
    -6.5507  -6.5337  -6.5155  -6.4736  -6.4621  -6.4504  -6.4452  -6.4423
    -6.4253  -6.3980  -6.3833  -6.3593  -6.3553  -6.3543  -6.3526  -6.3159
    -6.3153  -6.3064  -6.2897  -6.2865  -6.2771  -6.2663  -6.2634  -6.2517
    -6.2393  -6.2180  -6.2059  -6.1978  -6.1850  -6.1742  -6.1624  -6.1604
    -6.1474  -6.1455  -6.1437  -6.1359  -6.1250  -6.1231  -6.1065  -6.0956
    -6.0733  -6.0642  -6.0598  -6.0473  -6.0317  -6.0220  -6.0198  -6.0185
    -6.0090  -6.0030  -6.0006  -5.9882  -5.9715  -5.9623  -5.9569  -5.9490
    -5.9195  -5.8990  -5.8890  -5.8681  -5.8199  -5.8141  -5.7934  -5.7691
    -5.7631  -5.7622  -5.7447  -5.7264  -5.7246  -5.7230  -5.7167  -5.7133
    -5.6900  -5.6672  -5.6498  -5.6273  -5.6198  -5.6150  -5.6047  -5.5980
    -5.5754  -5.5747  -5.5620  -5.5503  -5.5411  -5.5284  -5.5264  -5.5245
    -5.5188  -5.5134  -5.5132  -5.5079  -5.5027  -5.4960  -5.4950  -5.4502
    -5.4356  -5.4255  -5.4224  -5.4186  -5.4158  -5.4154  -5.3877  -5.3854
    -5.3439  -5.3423  -5.3318  -5.3175  -5.3137  -5.3131  -5.3078  -5.2939
    -5.2843  -5.2331  -5.2114  -5.1615  -5.1385  -5.1222  -5.1172  -5.0817
    -5.0679  -5.0668  -5.0580  -5.0574  -4.9865  -4.9785  -4.9694  -4.9675
    -4.9546  -4.9403  -4.8932  -4.8596  -4.8272  -4.8211  -4.8025  -4.7445
    -4.7376  -4.7351  -4.6864  -4.6735  -0.1657  -0.1098  -0.0893  -0.0589
     0.0137   0.0463   0.0539   0.0613   0.0796   0.0896   0.0968   0.1034
     0.1096   0.1246   0.1329   0.1531   0.1580   0.1644   0.1661   0.1711
     0.1749

     highest occupied, lowest unoccupied level (ev):    -4.6521   -0.1789

!    total energy              =  -10249.33131586 Ry
     total all-electron energy =    -40959.943442 Ry
     estimated scf accuracy    <       0.00000059 Ry

     The total energy is the sum of the following terms:
     one-electron contribution =  -90150.17783871 Ry
     hartree contribution      =   45486.56312286 Ry
     xc contribution           =   -2267.18491606 Ry
     ewald contribution        =   40065.18128053 Ry
     one-center paw contrib.   =   -3383.71296448 Ry

     convergence has been achieved in  11 iterations

     Writing all to output data dir ./hBN_water_Oup_Hdown.save/

     init_run     :    824.51s CPU    832.31s WALL (       1 calls)
     electrons    :  20568.73s CPU  20678.32s WALL (       1 calls)

     Called by init_run:
     wfcinit      :    799.36s CPU    806.16s WALL (       1 calls)
     potinit      :      3.33s CPU      3.40s WALL (       1 calls)
     hinit0       :      5.31s CPU      5.39s WALL (       1 calls)

     Called by electrons:
     c_bands      :  18819.13s CPU  18907.62s WALL (      11 calls)
     sum_band     :   1720.57s CPU   1733.56s WALL (      11 calls)
     v_of_rho     :      5.80s CPU      5.93s WALL (      12 calls)
     newd         :     21.43s CPU     29.39s WALL (      12 calls)
     PAW_pot      :      1.94s CPU      1.95s WALL (      12 calls)
     mix_rho      :      1.75s CPU      1.80s WALL (      11 calls)

     Called by c_bands:
     init_us_2    :     93.23s CPU     94.40s WALL (      92 calls)
     init_us_2:cp :     93.23s CPU     94.40s WALL (      92 calls)
     cegterg      :  18721.52s CPU  18806.63s WALL (      50 calls)

     Called by *egterg:
     cdiaghg      :    149.94s CPU    155.49s WALL (     404 calls)
     h_psi        :   9877.08s CPU   9918.20s WALL (     408 calls)
     s_psi        :   2709.30s CPU   2714.45s WALL (     408 calls)
     g_psi        :     15.03s CPU     15.06s WALL (     354 calls)

     Called by h_psi:
     h_psi:calbec :   2891.44s CPU   2895.30s WALL (     408 calls)
     vloc_psi     :   4226.06s CPU   4238.59s WALL (     408 calls)
     add_vuspsi   :   2730.40s CPU   2741.12s WALL (     408 calls)

     General routines
     calbec       :   3686.35s CPU   3690.93s WALL (     452 calls)
     fft          :      4.12s CPU      4.22s WALL (     132 calls)
     ffts         :      0.28s CPU      0.29s WALL (      11 calls)
     fftw         :   4179.12s CPU   4191.06s WALL (  347832 calls)

     Parallel routines

     PWSCF        :      5h58m CPU      6h 1m WALL


   This run was terminated on:   2: 2: 3  26Oct2022            

=------------------------------------------------------------------------------=
   JOB DONE.
=------------------------------------------------------------------------------=
