[1666301120.238660] [rustyamd2:2127242:0]       rdmacm_cm.c:917  UCX  ERROR rdma_create_event_channel failed: Operation not permitted

     Program PWSCF v.7.1 starts on 20Oct2022 at 17:25:20 
        Git branch: HEAD
        Last git commit: 564a7b486665e8dd0223d6e514b84195d1a96c10
        Last git commit date: Tue Jun 14 16:16:48 2022 +0000
        Last git commit subject: Merge branch 'update_version_number' into 'develop

     This program is part of the open-source Quantum ESPRESSO suite
     for quantum simulation of materials; please cite
         "P. Giannozzi et al., J. Phys.:Condens. Matter 21 395502 (2009);
         "P. Giannozzi et al., J. Phys.:Condens. Matter 29 465901 (2017);
         "P. Giannozzi et al., J. Chem. Phys. 152 154105 (2020);
          URL http://www.quantum-espresso.org", 
     in publications or presentations arising from this work. More details at
     http://www.quantum-espresso.org/quote

     Parallel version (MPI & OpenMP), running on       1 processor cores
     Number of MPI processes:                 1
     Threads/MPI process:                     1

     MPI processes distributed on     1 nodes
     449828 MiB available memory on the printing compute node when the environment starts

     Waiting for input...
     Reading input from standard input

     Current dimensions of program PWSCF are:
     Max number of different atomic species (ntypx) = 10
     Max number of k-points (npk) =  40000
     Max angular momentum in pseudopotentials (lmaxx) =  4
     file N.pbe-n-kjpaw_psl.1.0.0.UPF: wavefunction(s)  2S renormalized
     file O.pbe-n-kjpaw_psl.1.0.0.UPF: wavefunction(s)  2S 2P renormalized
     file H.pbe-kjpaw_psl.1.0.0.UPF: wavefunction(s)  1S renormalized
     Message from routine setup:
     using ibrav=0 with symmetry is DISCOURAGED, use correct ibrav instead

     Subspace diagonalization in iterative solution of the eigenvalue problem:
     a serial algorithm will be used


     G-vector sticks info
     --------------------
     sticks:   dense  smooth     PW     G-vecs:    dense   smooth      PW
     Sum        1455    1455    367               267839   267839   33389

     Using Slab Decomposition



     bravais-lattice index     =            0
     lattice parameter (alat)  =       9.4658  a.u.
     unit-cell volume          =    4399.1244 (a.u.)^3
     number of atoms/cell      =           11
     number of atomic types    =            4
     number of electrons       =        40.00
     number of Kohn-Sham states=           33
     kinetic-energy cutoff     =      58.7989  Ry
     charge density cutoff     =     235.1956  Ry
     scf convergence threshold =      1.0E-06
     mixing beta               =       0.7000
     number of iterations used =            8  plain     mixing
     Exchange-correlation= SLA  PW   PBX  PBC
                           (   1   4   3   4   0   0   0)

     celldm(1)=   9.465808  celldm(2)=   0.000000  celldm(3)=   0.000000
     celldm(4)=   0.000000  celldm(5)=   0.000000  celldm(6)=   0.000000

     crystal axes: (cart. coord. in units of alat)
               a(1) = (   1.000000   0.000000   0.000000 )  
               a(2) = (   0.000000   0.866026   0.000000 )  
               a(3) = (   0.000000   0.000000   5.989112 )  

     reciprocal axes: (cart. coord. in units 2 pi/alat)
               b(1) = (  1.000000  0.000000  0.000000 )  
               b(2) = (  0.000000  1.154700  0.000000 )  
               b(3) = (  0.000000  0.000000  0.166970 )  


     PseudoPot. # 1 for B  read from file:
     ./B.pbe-n-kjpaw_psl.1.0.0.UPF
     MD5 check sum: 8c825a5969375aca5c2c6ad5945b3059
     Pseudo is Projector augmented-wave + core cor, Zval =  3.0
     Generated using &quot;atomic&quot; code by A. Dal Corso  v.6.3
     Shape of augmentation charge: PSQ
     Using radial grid of 1059 points,  4 beta functions with: 
                l(1) =   0
                l(2) =   0
                l(3) =   1
                l(4) =   1
     Q(r) pseudized with 0 coefficients 


     PseudoPot. # 2 for N  read from file:
     ./N.pbe-n-kjpaw_psl.1.0.0.UPF
     MD5 check sum: 14c48229446f9f2d411169a3abcbc3fa
     Pseudo is Projector augmented-wave + core cor, Zval =  5.0
     Generated using &quot;atomic&quot; code by A. Dal Corso  v.6.3
     Shape of augmentation charge: PSQ
     Using radial grid of 1085 points,  4 beta functions with: 
                l(1) =   0
                l(2) =   0
                l(3) =   1
                l(4) =   1
     Q(r) pseudized with 0 coefficients 


     PseudoPot. # 3 for O  read from file:
     ./O.pbe-n-kjpaw_psl.1.0.0.UPF
     MD5 check sum: e99d9cef9b487d1ca56f5b95ecd0fd7a
     Pseudo is Projector augmented-wave + core cor, Zval =  6.0
     Generated using &quot;atomic&quot; code by A. Dal Corso  v.6.3
     Shape of augmentation charge: PSQ
     Using radial grid of 1095 points,  4 beta functions with: 
                l(1) =   0
                l(2) =   0
                l(3) =   1
                l(4) =   1
     Q(r) pseudized with 0 coefficients 


     PseudoPot. # 4 for H  read from file:
     ./H.pbe-kjpaw_psl.1.0.0.UPF
     MD5 check sum: d81a744832360e4a8af0b0b5b123bc2a
     Pseudo is Projector augmented-wave, Zval =  1.0
     Generated using &quot;atomic&quot; code by A. Dal Corso  v.6.3MaX
     Shape of augmentation charge: PSQ
     Using radial grid of  929 points,  2 beta functions with: 
                l(1) =   0
                l(2) =   0
     Q(r) pseudized with 0 coefficients 


     atomic species   valence    mass     pseudopotential
        B              3.00    10.81100     B ( 1.00)
        N              5.00    14.00670     N ( 1.00)
        O              6.00    15.99900     O ( 1.00)
        H              1.00     1.00784     H ( 1.00)

      2 Sym. Ops. (no inversion) found



   Cartesian axes

     site n.     atom                  positions (alat units)
         1           B   tau(   1) = (   0.7500000   0.1443379   1.1978224  )
         2           B   tau(   2) = (   0.2500000   0.1443379   1.1978224  )
         3           B   tau(   3) = (   0.0000000   0.5773507   1.1978224  )
         4           B   tau(   4) = (   0.5000000   0.5773507   1.1978224  )
         5           N   tau(   5) = (   0.7500000   0.7216877   1.1978224  )
         6           N   tau(   6) = (   0.2500000   0.7216877   1.1978224  )
         7           N   tau(   7) = (   0.0000000   0.2886749   1.1978224  )
         8           N   tau(   8) = (   0.5000000   0.2886749   1.1978224  )
         9           O   tau(   9) = (   0.0000000   0.0000000   1.8765864  )
        10           H   tau(  10) = (   0.0000000   0.1511154   1.7596250  )
        11           H   tau(  11) = (   0.0000000   0.7149102   1.7596250  )

     number of k points=     1
                       cart. coord. in units 2pi/alat
        k(    1) = (   0.0000000   0.0000000   0.0000000), wk =   2.0000000

     Dense  grid:   267839 G-vectors     FFT dimensions: (  48,  45, 288)

     Estimated max dynamical RAM per process >     427.80 MB

     Check: negative core charge=   -0.000005

     Initial potential from superposition of free atoms

     starting charge      39.9988, renormalised to      40.0000

     negative rho (up, down):  3.722E-03 0.000E+00
     Starting wfcs are   38 randomized atomic wfcs
     Checking if some PAW data can be deallocated... 

     total cpu time spent up to now is        6.8 secs

     per-process dynamical memory:   208.5 Mb

     Self-consistent Calculation

     iteration #  1     ecut=    58.80 Ry     beta= 0.70
     Davidson diagonalization with overlap
     ethr =  1.00E-02,  avg # of iterations = 10.0

     negative rho (up, down):  5.216E-03 0.000E+00

     total cpu time spent up to now is       11.0 secs

     total energy              =    -202.44461693 Ry
     estimated scf accuracy    <       2.27588724 Ry

     iteration #  2     ecut=    58.80 Ry     beta= 0.70
     Davidson diagonalization with overlap
     ethr =  5.69E-03,  avg # of iterations =  2.0

     negative rho (up, down):  3.453E-03 0.000E+00

     total cpu time spent up to now is       14.0 secs

     total energy              =    -203.00377573 Ry
     estimated scf accuracy    <       1.22339372 Ry

     iteration #  3     ecut=    58.80 Ry     beta= 0.70
     Davidson diagonalization with overlap
     ethr =  3.06E-03,  avg # of iterations =  2.0

     negative rho (up, down):  4.291E-03 0.000E+00

     total cpu time spent up to now is       16.8 secs

     total energy              =    -203.24970667 Ry
     estimated scf accuracy    <       0.02073098 Ry

     iteration #  4     ecut=    58.80 Ry     beta= 0.70
     Davidson diagonalization with overlap
     ethr =  5.18E-05,  avg # of iterations = 15.0

     negative rho (up, down):  4.953E-03 0.000E+00

     total cpu time spent up to now is       21.2 secs

     total energy              =    -203.26290574 Ry
     estimated scf accuracy    <       0.00951564 Ry

     iteration #  5     ecut=    58.80 Ry     beta= 0.70
     Davidson diagonalization with overlap
     ethr =  2.38E-05,  avg # of iterations =  4.0

     negative rho (up, down):  5.582E-03 0.000E+00

     total cpu time spent up to now is       24.1 secs

     total energy              =    -203.26510008 Ry
     estimated scf accuracy    <       0.00082312 Ry

     iteration #  6     ecut=    58.80 Ry     beta= 0.70
     Davidson diagonalization with overlap
     ethr =  2.06E-06,  avg # of iterations = 14.0

     negative rho (up, down):  5.709E-03 0.000E+00

     total cpu time spent up to now is       27.3 secs

     total energy              =    -203.26518806 Ry
     estimated scf accuracy    <       0.00006550 Ry

     iteration #  7     ecut=    58.80 Ry     beta= 0.70
     Davidson diagonalization with overlap
     ethr =  1.64E-07,  avg # of iterations =  5.0

     negative rho (up, down):  5.721E-03 0.000E+00

     total cpu time spent up to now is       30.4 secs

     total energy              =    -203.26524474 Ry
     estimated scf accuracy    <       0.00004841 Ry

     iteration #  8     ecut=    58.80 Ry     beta= 0.70
     Davidson diagonalization with overlap
     ethr =  1.21E-07,  avg # of iterations =  1.0

     negative rho (up, down):  5.715E-03 0.000E+00

     total cpu time spent up to now is       32.9 secs

     total energy              =    -203.26523824 Ry
     estimated scf accuracy    <       0.00002394 Ry

     iteration #  9     ecut=    58.80 Ry     beta= 0.70
     Davidson diagonalization with overlap
     ethr =  5.98E-08,  avg # of iterations =  4.0

     negative rho (up, down):  5.722E-03 0.000E+00

     total cpu time spent up to now is       35.7 secs

     End of self-consistent calculation

          k = 0.0000 0.0000 0.0000 ( 33389 PWs)   bands (ev):

   -24.0509 -23.0505 -20.0676 -20.0532 -19.9358 -14.2981 -13.0059 -12.9998
   -11.7519 -11.2701 -11.2626 -10.6936  -9.5047  -7.9051  -6.6770  -6.6702
    -6.5050  -6.4883  -6.2642  -5.7739  -0.9847  -0.6592   0.0105   0.2775
     0.2878   0.7758   1.3335   1.7236   2.2555   2.4607   3.3850   3.6366
     4.1109

     highest occupied, lowest unoccupied level (ev):    -5.7739   -0.9847

!    total energy              =    -203.26524325 Ry
     total all-electron energy =      -790.264707 Ry
     estimated scf accuracy    <       0.00000016 Ry

     The total energy is the sum of the following terms:
     one-electron contribution =   -1854.38816924 Ry
     hartree contribution      =     934.98060145 Ry
     xc contribution           =     -44.26928890 Ry
     ewald contribution        =     822.71451890 Ry
     one-center paw contrib.   =     -62.30290546 Ry

     convergence has been achieved in   9 iterations

     Writing all to output data dir ./hBN_water_Oup_Hdown.save/

     init_run     :      6.41s CPU      6.51s WALL (       1 calls)
     electrons    :     28.15s CPU     29.00s WALL (       1 calls)

     Called by init_run:
     wfcinit      :      0.73s CPU      0.73s WALL (       1 calls)
     potinit      :      2.16s CPU      2.18s WALL (       1 calls)
     hinit0       :      3.27s CPU      3.29s WALL (       1 calls)

     Called by electrons:
     c_bands      :     17.21s CPU     17.27s WALL (       9 calls)
     sum_band     :      4.49s CPU      4.86s WALL (       9 calls)
     v_of_rho     :      2.61s CPU      2.63s WALL (      10 calls)
     newd         :      1.71s CPU      2.12s WALL (      10 calls)
     PAW_pot      :      2.50s CPU      2.50s WALL (      10 calls)
     mix_rho      :      0.28s CPU      0.29s WALL (       9 calls)

     Called by c_bands:
     init_us_2    :      0.16s CPU      0.17s WALL (      19 calls)
     init_us_2:cp :      0.16s CPU      0.17s WALL (      19 calls)
     cegterg      :     16.96s CPU     17.01s WALL (       9 calls)

     Called by *egterg:
     cdiaghg      :      0.07s CPU      0.07s WALL (      66 calls)
     h_psi        :     13.80s CPU     13.82s WALL (      67 calls)
     s_psi        :      0.76s CPU      0.77s WALL (      67 calls)
     g_psi        :      0.06s CPU      0.06s WALL (      57 calls)

     Called by h_psi:
     h_psi:calbec :      0.67s CPU      0.67s WALL (      67 calls)
     vloc_psi     :     12.30s CPU     12.31s WALL (      67 calls)
     add_vuspsi   :      0.78s CPU      0.78s WALL (      67 calls)

     General routines
     calbec       :      0.85s CPU      0.85s WALL (      76 calls)
     fft          :      0.73s CPU      0.75s WALL (     110 calls)
     ffts         :      0.06s CPU      0.06s WALL (       9 calls)
     fftw         :     13.25s CPU     13.26s WALL (    2077 calls)

     Parallel routines

     PWSCF        :     34.76s CPU     35.86s WALL


   This run was terminated on:  17:25:56  20Oct2022            

=------------------------------------------------------------------------------=
   JOB DONE.
=------------------------------------------------------------------------------=
